MODEL 1
REMARK VINA RESULT:   -12.340      0.000      0.000
REMARK INTER + INTRA:         -18.656
REMARK INTER:                 -17.390
REMARK INTRA:                  -1.266
REMARK UNBOUND:                -1.266
REMARK SMILES CCc1c(F)ccc2cc(O)cc(-c3ncc4c(N5CCC[C@@](C)(O)C5)nc(OC[C@@]56CCCN5C[C@H](F)C6)nc4c3F)c12
REMARK SMILES IDX 14 1 42 2 41 3 17 4 16 5 15 6 18 7 27 8 28 9 40 10 43 11
REMARK SMILES IDX 13 12 3 13 4 14 44 15 6 16 8 17 7 18 9 19 12 20 10 21 5 22
REMARK SMILES IDX 2 23 1 24 11 25 19 27 20 28 26 29 21 30 23 31 22 32 24 33
REMARK SMILES IDX 25 34 29 36 30 37 31 38 32 39 35 40 39 41 33 42 34 43 36 44
REMARK SMILES IDX 37 45 38 46
REMARK H PARENT 11 26 25 35
ROOT
ATOM      1  C   UNL     1     -19.095   3.787  24.268  1.00  0.00    +0.109 A 
ATOM      2  C   UNL     1     -19.700   4.847  23.598  1.00  0.00    +0.176 A 
ATOM      3  C   UNL     1     -21.025   4.759  23.188  1.00  0.00    +0.119 A 
ATOM      4  C   UNL     1     -21.710   3.569  23.428  1.00  0.00    +0.065 A 
ATOM      5  C   UNL     1     -21.025   2.540  24.090  1.00  0.00    +0.126 A 
ATOM      6  N   UNL     1     -19.738   2.617  24.498  1.00  0.00    -0.252 NA
ATOM      7  C   UNL     1     -23.048   3.517  23.004  1.00  0.00    +0.145 A 
ATOM      8  N   UNL     1     -23.643   4.582  22.442  1.00  0.00    -0.177 NA
ATOM      9  C   UNL     1     -22.902   5.676  22.260  1.00  0.00    +0.319 A 
ATOM     10  N   UNL     1     -21.616   5.803  22.593  1.00  0.00    -0.192 NA
ATOM     11  F   UNL     1     -19.001   5.971  23.356  1.00  0.00    -0.202 F 
ENDROOT
BRANCH   1  12
ATOM     12  C   UNL     1     -17.691   3.833  24.694  1.00  0.00    +0.015 A 
ATOM     13  C   UNL     1     -16.543   3.819  22.343  1.00  0.00    -0.004 A 
ATOM     14  C   UNL     1     -15.317   3.755  21.646  1.00  0.00    +0.127 A 
ATOM     15  C   UNL     1     -16.553   3.808  23.792  1.00  0.00    -0.002 A 
ATOM     16  C   UNL     1     -14.100   3.701  22.295  1.00  0.00    +0.040 A 
ATOM     17  C   UNL     1     -15.266   3.776  24.423  1.00  0.00    -0.014 A 
ATOM     18  C   UNL     1     -14.079   3.719  23.678  1.00  0.00    +0.012 A 
ATOM     19  C   UNL     1     -15.129   3.804  25.816  1.00  0.00    +0.055 A 
ATOM     20  C   UNL     1     -17.501   3.879  26.095  1.00  0.00    +0.057 A 
ATOM     21  C   UNL     1     -16.234   3.867  26.639  1.00  0.00    +0.116 A 
ATOM     22  F   UNL     1     -15.313   3.753  20.304  1.00  0.00    -0.207 F 
BRANCH  13  23
ATOM     23  C   UNL     1     -17.764   3.912  21.451  1.00  0.00    +0.036 C 
ATOM     24  C   UNL     1     -18.332   2.544  21.094  1.00  0.00    +0.009 C 
ENDBRANCH  13  23
BRANCH  21  25
ATOM     25  O   UNL     1     -16.029   3.907  27.985  1.00  0.00    -0.508 OA
ATOM     26  H   UNL     1     -15.084   3.772  28.165  1.00  0.00    +0.293 HD
ENDBRANCH  21  25
ENDBRANCH   1  12
BRANCH   7  27
ATOM     27  N   UNL     1     -23.795   2.332  23.171  1.00  0.00    -0.353 N 
ATOM     28  C   UNL     1     -23.161   1.166  22.536  1.00  0.00    +0.118 C 
ATOM     29  C   UNL     1     -25.243   2.468  22.868  1.00  0.00    +0.153 C 
ATOM     30  C   UNL     1     -23.260   1.212  21.010  1.00  0.00    +0.024 C 
ATOM     31  C   UNL     1     -25.686   1.777  21.547  1.00  0.00    +0.079 C 
ATOM     32  C   UNL     1     -24.577   1.799  20.489  1.00  0.00    +0.038 C 
ATOM     33  C   UNL     1     -26.962   2.432  21.011  1.00  0.00    +0.044 C 
BRANCH  31  34
ATOM     34  O   UNL     1     -25.998   0.399  21.823  1.00  0.00    -0.388 OA
ATOM     35  H   UNL     1     -26.047  -0.072  20.972  1.00  0.00    +0.211 HD
ENDBRANCH  31  34
ENDBRANCH   7  27
BRANCH   9  36
ATOM     36  O   UNL     1     -23.584   6.738  21.712  1.00  0.00    -0.461 OA
BRANCH  36  37
ATOM     37  C   UNL     1     -24.972   6.521  21.452  1.00  0.00    +0.255 C 
BRANCH  37  38
ATOM     38  C   UNL     1     -25.631   7.770  20.811  1.00  0.00    +0.058 C 
ATOM     39  C   UNL     1     -26.136   7.523  19.383  1.00  0.00    +0.027 C 
ATOM     40  N   UNL     1     -26.861   8.168  21.546  1.00  0.00    -0.291 NA
ATOM     41  C   UNL     1     -24.723   8.997  20.932  1.00  0.00    +0.065 C 
ATOM     42  C   UNL     1     -27.521   6.926  19.582  1.00  0.00    +0.018 C 
ATOM     43  C   UNL     1     -27.953   7.356  20.982  1.00  0.00    +0.085 C 
ATOM     44  C   UNL     1     -27.050   9.609  21.276  1.00  0.00    +0.123 C 
ATOM     45  C   UNL     1     -25.671  10.181  20.955  1.00  0.00    +0.182 C 
ATOM     46  F   UNL     1     -25.700  10.746  19.717  1.00  0.00    -0.246 F 
ENDBRANCH  37  38
ENDBRANCH  36  37
ENDBRANCH   9  36
TORSDOF 8
ENDMDL
