MODEL 1
REMARK VINA RESULT:   -12.918      0.000      0.000
REMARK INTER + INTRA:         -18.524
REMARK INTER:                 -17.072
REMARK INTRA:                  -1.453
REMARK UNBOUND:                -1.453
REMARK SMILES C#Cc1c(F)ccc2cc(O)cc(-c3ncc4c(N5C[C@H]6CC[C@@H](C5)N6)nc(OC[C@@]56CCCN5C[C@H](F)C6)nc4c3F)c12
REMARK SMILES IDX 14 1 42 2 41 3 17 4 16 5 15 6 18 7 27 8 28 9 40 10 43 11
REMARK SMILES IDX 13 12 2 13 3 14 4 15 44 16 6 17 8 18 7 19 9 20 12 21 10 22
REMARK SMILES IDX 1 23 5 24 11 25 19 27 20 28 25 29 21 30 24 31 22 32 26 33
REMARK SMILES IDX 23 34 29 36 30 37 31 38 32 39 35 40 39 41 33 42 34 43 36 44
REMARK SMILES IDX 37 45 38 46
REMARK H PARENT 11 26 26 35
ROOT
ATOM      1  C   UNL     1     -19.135   3.538  24.021  1.00  0.00    +0.109 A 
ATOM      2  C   UNL     1     -19.854   4.635  23.550  1.00  0.00    +0.176 A 
ATOM      3  C   UNL     1     -21.175   4.490  23.141  1.00  0.00    +0.119 A 
ATOM      4  C   UNL     1     -21.761   3.228  23.245  1.00  0.00    +0.065 A 
ATOM      5  C   UNL     1     -20.969   2.177  23.731  1.00  0.00    +0.126 A 
ATOM      6  N   UNL     1     -19.686   2.307  24.139  1.00  0.00    -0.252 NA
ATOM      7  C   UNL     1     -23.099   3.114  22.824  1.00  0.00    +0.145 A 
ATOM      8  N   UNL     1     -23.748   4.163  22.301  1.00  0.00    -0.177 NA
ATOM      9  C   UNL     1     -23.098   5.326  22.232  1.00  0.00    +0.319 A 
ATOM     10  N   UNL     1     -21.848   5.543  22.655  1.00  0.00    -0.192 NA
ATOM     11  F   UNL     1     -19.265   5.842  23.488  1.00  0.00    -0.202 F 
ENDROOT
BRANCH   1  12
ATOM     12  C   UNL     1     -17.748   3.655  24.490  1.00  0.00    +0.016 A 
ATOM     13  C   UNL     1     -17.760   3.088  21.427  1.00  0.00    -0.067 C 
ATOM     14  C   UNL     1     -16.582   3.386  22.197  1.00  0.00    +0.068 A 
ATOM     15  C   UNL     1     -15.377   3.407  21.478  1.00  0.00    +0.139 A 
ATOM     16  C   UNL     1     -16.597   3.619  23.616  1.00  0.00    +0.010 A 
ATOM     17  C   UNL     1     -14.165   3.638  22.101  1.00  0.00    +0.041 A 
ATOM     18  C   UNL     1     -15.323   3.828  24.230  1.00  0.00    -0.013 A 
ATOM     19  C   UNL     1     -14.141   3.840  23.473  1.00  0.00    +0.012 A 
ATOM     20  C   UNL     1     -15.208   4.024  25.613  1.00  0.00    +0.055 A 
ATOM     21  C   UNL     1     -17.584   3.835  25.882  1.00  0.00    +0.057 A 
ATOM     22  C   UNL     1     -16.326   4.014  26.427  1.00  0.00    +0.116 A 
ATOM     23  C   UNL     1     -18.706   2.823  20.736  1.00  0.00    +0.010 C 
ATOM     24  F   UNL     1     -15.371   3.194  20.151  1.00  0.00    -0.206 F 
BRANCH  22  25
ATOM     25  O   UNL     1     -16.143   4.194  27.764  1.00  0.00    -0.508 OA
ATOM     26  H   UNL     1     -16.555   5.034  28.028  1.00  0.00    +0.293 HD
ENDBRANCH  22  25
ENDBRANCH   1  12
BRANCH   7  27
ATOM     27  N   UNL     1     -23.781   1.895  22.939  1.00  0.00    -0.353 N 
ATOM     28  C   UNL     1     -25.253   2.014  23.092  1.00  0.00    +0.137 C 
ATOM     29  C   UNL     1     -23.321   0.797  22.050  1.00  0.00    +0.137 C 
ATOM     30  C   UNL     1     -26.050   1.573  21.833  1.00  0.00    +0.073 C 
ATOM     31  C   UNL     1     -24.308   0.439  20.904  1.00  0.00    +0.073 C 
ATOM     32  C   UNL     1     -25.684   2.391  20.591  1.00  0.00    +0.022 C 
ATOM     33  N   UNL     1     -25.667   0.197  21.448  1.00  0.00    -0.308 NA
ATOM     34  C   UNL     1     -24.565   1.588  19.932  1.00  0.00    +0.022 C 
ATOM     35  H   UNL     1     -26.271  -0.112  20.687  1.00  0.00    +0.123 HD
ENDBRANCH   7  27
BRANCH   9  36
ATOM     36  O   UNL     1     -23.838   6.365  21.718  1.00  0.00    -0.461 OA
BRANCH  36  37
ATOM     37  C   UNL     1     -25.214   6.030  21.511  1.00  0.00    +0.255 C 
BRANCH  37  38
ATOM     38  C   UNL     1     -25.957   7.191  20.800  1.00  0.00    +0.058 C 
ATOM     39  C   UNL     1     -26.317   6.771  19.354  1.00  0.00    +0.027 C 
ATOM     40  N   UNL     1     -27.258   7.509  21.468  1.00  0.00    -0.291 NA
ATOM     41  C   UNL     1     -25.147   8.494  20.855  1.00  0.00    +0.065 C 
ATOM     42  C   UNL     1     -27.820   6.955  19.232  1.00  0.00    +0.018 C 
ATOM     43  C   UNL     1     -28.302   6.861  20.663  1.00  0.00    +0.085 C 
ATOM     44  C   UNL     1     -27.397   8.984  21.484  1.00  0.00    +0.123 C 
ATOM     45  C   UNL     1     -26.196   9.575  20.761  1.00  0.00    +0.182 C 
ATOM     46  F   UNL     1     -26.506   9.784  19.453  1.00  0.00    -0.246 F 
ENDBRANCH  37  38
ENDBRANCH  36  37
ENDBRANCH   9  36
TORSDOF 6
ENDMDL
MODEL 2
REMARK VINA RESULT:   -11.201      1.712      2.679
REMARK INTER + INTRA:         -16.255
REMARK INTER:                 -14.979
REMARK INTRA:                  -1.276
REMARK UNBOUND:                -1.453
REMARK SMILES C#Cc1c(F)ccc2cc(O)cc(-c3ncc4c(N5C[C@H]6CC[C@@H](C5)N6)nc(OC[C@@]56CCCN5C[C@H](F)C6)nc4c3F)c12
REMARK SMILES IDX 14 1 42 2 41 3 17 4 16 5 15 6 18 7 27 8 28 9 40 10 43 11
REMARK SMILES IDX 13 12 2 13 3 14 4 15 44 16 6 17 8 18 7 19 9 20 12 21 10 22
REMARK SMILES IDX 1 23 5 24 11 25 19 27 20 28 25 29 21 30 24 31 22 32 26 33
REMARK SMILES IDX 23 34 29 36 30 37 31 38 32 39 35 40 39 41 33 42 34 43 36 44
REMARK SMILES IDX 37 45 38 46
REMARK H PARENT 11 26 26 35
ROOT
ATOM      1  C   UNL     1     -19.123   3.716  22.617  1.00  0.00    +0.109 A 
ATOM      2  C   UNL     1     -19.897   4.860  22.430  1.00  0.00    +0.176 A 
ATOM      3  C   UNL     1     -21.285   4.783  22.435  1.00  0.00    +0.119 A 
ATOM      4  C   UNL     1     -21.873   3.538  22.662  1.00  0.00    +0.065 A 
ATOM      5  C   UNL     1     -21.023   2.437  22.843  1.00  0.00    +0.126 A 
ATOM      6  N   UNL     1     -19.673   2.500  22.848  1.00  0.00    -0.252 NA
ATOM      7  C   UNL     1     -23.279   3.492  22.662  1.00  0.00    +0.145 A 
ATOM      8  N   UNL     1     -24.005   4.589  22.402  1.00  0.00    -0.177 NA
ATOM      9  C   UNL     1     -23.349   5.731  22.185  1.00  0.00    +0.319 A 
ATOM     10  N   UNL     1     -22.021   5.882  22.217  1.00  0.00    -0.192 NA
ATOM     11  F   UNL     1     -19.295   6.048  22.240  1.00  0.00    -0.202 F 
ENDROOT
BRANCH   1  12
ATOM     12  C   UNL     1     -17.656   3.761  22.648  1.00  0.00    +0.016 A 
ATOM     13  C   UNL     1     -18.757   3.935  25.557  1.00  0.00    -0.067 C 
ATOM     14  C   UNL     1     -17.364   3.823  25.217  1.00  0.00    +0.068 A 
ATOM     15  C   UNL     1     -16.475   3.801  26.303  1.00  0.00    +0.139 A 
ATOM     16  C   UNL     1     -16.876   3.772  23.865  1.00  0.00    +0.010 A 
ATOM     17  C   UNL     1     -15.106   3.741  26.119  1.00  0.00    +0.041 A 
ATOM     18  C   UNL     1     -15.455   3.736  23.713  1.00  0.00    -0.013 A 
ATOM     19  C   UNL     1     -14.601   3.715  24.828  1.00  0.00    +0.012 A 
ATOM     20  C   UNL     1     -14.862   3.725  22.443  1.00  0.00    +0.055 A 
ATOM     21  C   UNL     1     -17.016   3.771  21.389  1.00  0.00    +0.057 A 
ATOM     22  C   UNL     1     -15.636   3.755  21.298  1.00  0.00    +0.116 A 
ATOM     23  C   UNL     1     -19.904   4.040  25.900  1.00  0.00    +0.010 C 
ATOM     24  F   UNL     1     -16.938   3.844  27.564  1.00  0.00    -0.206 F 
BRANCH  22  25
ATOM     25  O   UNL     1     -14.997   3.760  20.096  1.00  0.00    -0.508 OA
ATOM     26  H   UNL     1     -15.213   2.939  19.621  1.00  0.00    +0.293 HD
ENDBRANCH  22  25
ENDBRANCH   1  12
BRANCH   7  27
ATOM     27  N   UNL     1     -23.954   2.293  22.930  1.00  0.00    -0.353 N 
ATOM     28  C   UNL     1     -25.435   2.388  22.894  1.00  0.00    +0.137 C 
ATOM     29  C   UNL     1     -23.380   1.065  22.321  1.00  0.00    +0.137 C 
ATOM     30  C   UNL     1     -26.076   1.692  21.661  1.00  0.00    +0.073 C 
ATOM     31  C   UNL     1     -24.224   0.465  21.162  1.00  0.00    +0.073 C 
ATOM     32  C   UNL     1     -25.581   2.275  20.335  1.00  0.00    +0.022 C 
ATOM     33  N   UNL     1     -25.633   0.282  21.589  1.00  0.00    -0.308 NA
ATOM     34  C   UNL     1     -24.382   1.403  19.967  1.00  0.00    +0.022 C 
ATOM     35  H   UNL     1     -26.141  -0.185  20.838  1.00  0.00    +0.123 HD
ENDBRANCH   7  27
BRANCH   9  36
ATOM     36  O   UNL     1     -24.158   6.821  21.962  1.00  0.00    -0.461 OA
BRANCH  36  37
ATOM     37  C   UNL     1     -24.427   7.049  20.574  1.00  0.00    +0.255 C 
BRANCH  37  38
ATOM     38  C   UNL     1     -25.950   7.209  20.333  1.00  0.00    +0.058 C 
ATOM     39  C   UNL     1     -26.388   6.319  19.145  1.00  0.00    +0.027 C 
ATOM     40  N   UNL     1     -26.750   6.742  21.509  1.00  0.00    -0.291 NA
ATOM     41  C   UNL     1     -26.337   8.682  20.144  1.00  0.00    +0.065 C 
ATOM     42  C   UNL     1     -27.496   5.428  19.681  1.00  0.00    +0.018 C 
ATOM     43  C   UNL     1     -27.229   5.395  21.170  1.00  0.00    +0.085 C 
ATOM     44  C   UNL     1     -27.863   7.702  21.696  1.00  0.00    +0.123 C 
ATOM     45  C   UNL     1     -27.780   8.737  20.583  1.00  0.00    +0.182 C 
ATOM     46  F   UNL     1     -28.577   8.359  19.547  1.00  0.00    -0.246 F 
ENDBRANCH  37  38
ENDBRANCH  36  37
ENDBRANCH   9  36
TORSDOF 6
ENDMDL
