MODEL 1
REMARK VINA RESULT:    -9.280      0.000      0.000
REMARK INTER + INTRA:         -14.756
REMARK INTER:                 -12.806
REMARK INTRA:                  -1.949
REMARK UNBOUND:                -1.949
REMARK SMILES CCc1c(F)ccc2cc(O)cc(-c3ncc4c(N5CCC[C@]6(CCO6)C5)nc(OC[C@@]56CCCN5C[C@H](F)C6)nc4c3F)c12
REMARK SMILES IDX 14 1 43 2 42 3 17 4 16 5 15 6 18 7 28 8 29 9 41 10 44 11
REMARK SMILES IDX 13 12 3 13 4 14 45 15 6 16 8 17 7 18 9 19 12 20 10 21 5 22
REMARK SMILES IDX 2 23 1 24 11 25 19 27 20 28 27 29 21 30 23 31 22 32 24 33
REMARK SMILES IDX 26 34 25 35 30 36 31 37 32 38 33 39 36 40 40 41 34 42 35 43
REMARK SMILES IDX 37 44 38 45 39 46
REMARK H PARENT 11 26
ROOT
ATOM      1  C   UNL     1     -28.010   7.156  19.250  1.00  0.00    +0.109 A 
ATOM      2  C   UNL     1     -27.048   6.338  19.843  1.00  0.00    +0.176 A 
ATOM      3  C   UNL     1     -25.902   6.889  20.407  1.00  0.00    +0.119 A 
ATOM      4  C   UNL     1     -25.763   8.275  20.381  1.00  0.00    +0.065 A 
ATOM      5  C   UNL     1     -26.778   9.028  19.775  1.00  0.00    +0.126 A 
ATOM      6  N   UNL     1     -27.897   8.504  19.229  1.00  0.00    -0.252 NA
ATOM      7  C   UNL     1     -24.594   8.801  20.955  1.00  0.00    +0.145 A 
ATOM      8  N   UNL     1     -23.650   8.005  21.479  1.00  0.00    -0.177 NA
ATOM      9  C   UNL     1     -23.879   6.690  21.462  1.00  0.00    +0.319 A 
ATOM     10  N   UNL     1     -24.966   6.097  20.952  1.00  0.00    -0.192 NA
ATOM     11  F   UNL     1     -27.225   5.005  19.864  1.00  0.00    -0.202 F 
ENDROOT
BRANCH   1  12
ATOM     12  C   UNL     1     -29.255   6.611  18.695  1.00  0.00    +0.015 A 
ATOM     13  C   UNL     1     -30.599   6.312  20.914  1.00  0.00    -0.004 A 
ATOM     14  C   UNL     1     -31.842   5.966  21.487  1.00  0.00    +0.127 A 
ATOM     15  C   UNL     1     -30.430   6.277  19.477  1.00  0.00    -0.002 A 
ATOM     16  C   UNL     1     -32.927   5.587  20.723  1.00  0.00    +0.040 A 
ATOM     17  C   UNL     1     -31.573   5.849  18.725  1.00  0.00    -0.014 A 
ATOM     18  C   UNL     1     -32.788   5.525  19.348  1.00  0.00    +0.012 A 
ATOM     19  C   UNL     1     -31.534   5.731  17.331  1.00  0.00    +0.055 A 
ATOM     20  C   UNL     1     -29.255   6.455  17.287  1.00  0.00    +0.057 A 
ATOM     21  C   UNL     1     -30.384   6.019  16.624  1.00  0.00    +0.116 A 
ATOM     22  F   UNL     1     -31.992   5.983  22.821  1.00  0.00    -0.207 F 
BRANCH  13  23
ATOM     23  C   UNL     1     -29.508   6.622  21.918  1.00  0.00    +0.036 C 
ATOM     24  C   UNL     1     -29.586   8.059  22.417  1.00  0.00    +0.009 C 
ENDBRANCH  13  23
BRANCH  21  25
ATOM     25  O   UNL     1     -30.408   5.868  15.270  1.00  0.00    -0.508 OA
ATOM     26  H   UNL     1     -30.812   5.011  15.055  1.00  0.00    +0.293 HD
ENDBRANCH  21  25
ENDBRANCH   1  12
BRANCH   7  27
ATOM     27  N   UNL     1     -24.401  10.206  20.996  1.00  0.00    -0.353 N 
ATOM     28  C   UNL     1     -23.657  10.578  22.223  1.00  0.00    +0.118 C 
ATOM     29  C   UNL     1     -23.760  10.717  19.766  1.00  0.00    +0.153 C 
ATOM     30  C   UNL     1     -22.987  11.955  22.087  1.00  0.00    +0.024 C 
ATOM     31  C   UNL     1     -23.832  12.260  19.754  1.00  0.00    +0.088 C 
ATOM     32  C   UNL     1     -23.776  12.874  21.160  1.00  0.00    +0.039 C 
ATOM     33  C   UNL     1     -24.905  12.883  18.837  1.00  0.00    +0.066 C 
ATOM     34  O   UNL     1     -22.772  12.813  18.915  1.00  0.00    -0.373 OA
ATOM     35  C   UNL     1     -23.737  13.228  17.921  1.00  0.00    +0.164 C 
ENDBRANCH   7  27
BRANCH   9  36
ATOM     36  O   UNL     1     -22.879   5.927  22.016  1.00  0.00    -0.461 OA
BRANCH  36  37
ATOM     37  C   UNL     1     -23.348   4.713  22.608  1.00  0.00    +0.255 C 
BRANCH  37  38
ATOM     38  C   UNL     1     -22.160   3.761  22.933  1.00  0.00    +0.058 C 
ATOM     39  C   UNL     1     -20.858   4.540  23.170  1.00  0.00    +0.027 C 
ATOM     40  N   UNL     1     -22.430   3.027  24.205  1.00  0.00    -0.291 NA
ATOM     41  C   UNL     1     -22.043   2.673  21.862  1.00  0.00    +0.065 C 
ATOM     42  C   UNL     1     -20.713   4.559  24.684  1.00  0.00    +0.018 C 
ATOM     43  C   UNL     1     -21.274   3.210  25.089  1.00  0.00    +0.085 C 
ATOM     44  C   UNL     1     -22.686   1.613  23.885  1.00  0.00    +0.123 C 
ATOM     45  C   UNL     1     -22.949   1.577  22.387  1.00  0.00    +0.182 C 
ATOM     46  F   UNL     1     -22.596   0.385  21.856  1.00  0.00    -0.246 F 
ENDBRANCH  37  38
ENDBRANCH  36  37
ENDBRANCH   9  36
TORSDOF 7
ENDMDL
MODEL 2
REMARK VINA RESULT:    -8.972      3.824      9.210
REMARK INTER + INTRA:         -14.330
REMARK INTER:                 -12.290
REMARK INTRA:                  -2.040
REMARK UNBOUND:                -1.949
REMARK SMILES CCc1c(F)ccc2cc(O)cc(-c3ncc4c(N5CCC[C@]6(CCO6)C5)nc(OC[C@@]56CCCN5C[C@H](F)C6)nc4c3F)c12
REMARK SMILES IDX 14 1 43 2 42 3 17 4 16 5 15 6 18 7 28 8 29 9 41 10 44 11
REMARK SMILES IDX 13 12 3 13 4 14 45 15 6 16 8 17 7 18 9 19 12 20 10 21 5 22
REMARK SMILES IDX 2 23 1 24 11 25 19 27 20 28 27 29 21 30 23 31 22 32 24 33
REMARK SMILES IDX 26 34 25 35 30 36 31 37 32 38 33 39 36 40 40 41 34 42 35 43
REMARK SMILES IDX 37 44 38 45 39 46
REMARK H PARENT 11 26
ROOT
ATOM      1  C   UNL     1     -26.194   3.460  21.992  1.00  0.00    +0.109 A 
ATOM      2  C   UNL     1     -26.617   4.436  21.088  1.00  0.00    +0.176 A 
ATOM      3  C   UNL     1     -27.467   5.458  21.498  1.00  0.00    +0.119 A 
ATOM      4  C   UNL     1     -27.858   5.486  22.835  1.00  0.00    +0.065 A 
ATOM      5  C   UNL     1     -27.383   4.475  23.682  1.00  0.00    +0.126 A 
ATOM      6  N   UNL     1     -26.554   3.481  23.296  1.00  0.00    -0.252 NA
ATOM      7  C   UNL     1     -28.720   6.527  23.217  1.00  0.00    +0.145 A 
ATOM      8  N   UNL     1     -29.161   7.433  22.331  1.00  0.00    -0.177 NA
ATOM      9  C   UNL     1     -28.723   7.325  21.075  1.00  0.00    +0.319 A 
ATOM     10  N   UNL     1     -27.893   6.379  20.620  1.00  0.00    -0.192 NA
ATOM     11  F   UNL     1     -26.204   4.386  19.810  1.00  0.00    -0.202 F 
ENDROOT
BRANCH   1  12
ATOM     12  C   UNL     1     -25.254   2.402  21.605  1.00  0.00    +0.015 A 
ATOM     13  C   UNL     1     -23.052   3.440  22.549  1.00  0.00    -0.004 A 
ATOM     14  C   UNL     1     -21.674   3.240  22.780  1.00  0.00    +0.127 A 
ATOM     15  C   UNL     1     -23.837   2.404  21.912  1.00  0.00    -0.002 A 
ATOM     16  C   UNL     1     -21.026   2.077  22.418  1.00  0.00    +0.040 A 
ATOM     17  C   UNL     1     -23.117   1.226  21.526  1.00  0.00    -0.014 A 
ATOM     18  C   UNL     1     -21.747   1.078  21.788  1.00  0.00    +0.012 A 
ATOM     19  C   UNL     1     -23.746   0.164  20.864  1.00  0.00    +0.055 A 
ATOM     20  C   UNL     1     -25.843   1.313  20.915  1.00  0.00    +0.057 A 
ATOM     21  C   UNL     1     -25.090   0.215  20.552  1.00  0.00    +0.116 A 
ATOM     22  F   UNL     1     -20.944   4.208  23.356  1.00  0.00    -0.207 F 
BRANCH  13  23
ATOM     23  C   UNL     1     -23.564   4.810  22.943  1.00  0.00    +0.036 C 
ATOM     24  C   UNL     1     -23.187   5.875  21.922  1.00  0.00    +0.009 C 
ENDBRANCH  13  23
BRANCH  21  25
ATOM     25  O   UNL     1     -25.636  -0.845  19.894  1.00  0.00    -0.508 OA
ATOM     26  H   UNL     1     -26.124  -1.394  20.530  1.00  0.00    +0.293 HD
ENDBRANCH  21  25
ENDBRANCH   1  12
BRANCH   7  27
ATOM     27  N   UNL     1     -29.131   6.639  24.570  1.00  0.00    -0.353 N 
ATOM     28  C   UNL     1     -28.393   7.741  25.233  1.00  0.00    +0.118 C 
ATOM     29  C   UNL     1     -30.597   6.780  24.697  1.00  0.00    +0.153 C 
ATOM     30  C   UNL     1     -29.123   8.239  26.490  1.00  0.00    +0.024 C 
ATOM     31  C   UNL     1     -31.000   6.618  26.180  1.00  0.00    +0.088 C 
ATOM     32  C   UNL     1     -29.926   7.124  27.153  1.00  0.00    +0.039 C 
ATOM     33  C   UNL     1     -31.614   5.258  26.572  1.00  0.00    +0.066 C 
ATOM     34  O   UNL     1     -32.274   7.284  26.437  1.00  0.00    -0.373 OA
ATOM     35  C   UNL     1     -32.938   6.011  26.604  1.00  0.00    +0.164 C 
ENDBRANCH   7  27
BRANCH   9  36
ATOM     36  O   UNL     1     -29.206   8.284  20.216  1.00  0.00    -0.461 OA
BRANCH  36  37
ATOM     37  C   UNL     1     -29.227   7.867  18.849  1.00  0.00    +0.255 C 
BRANCH  37  38
ATOM     38  C   UNL     1     -30.658   7.427  18.425  1.00  0.00    +0.058 C 
ATOM     39  C   UNL     1     -31.694   8.527  18.700  1.00  0.00    +0.027 C 
ATOM     40  N   UNL     1     -30.702   7.188  16.952  1.00  0.00    -0.291 NA
ATOM     41  C   UNL     1     -31.008   6.077  19.059  1.00  0.00    +0.065 C 
ATOM     42  C   UNL     1     -31.933   9.154  17.335  1.00  0.00    +0.018 C 
ATOM     43  C   UNL     1     -31.816   7.966  16.399  1.00  0.00    +0.085 C 
ATOM     44  C   UNL     1     -30.843   5.742  16.716  1.00  0.00    +0.123 C 
ATOM     45  C   UNL     1     -30.497   5.079  18.040  1.00  0.00    +0.182 C 
ATOM     46  F   UNL     1     -31.140   3.897  18.180  1.00  0.00    -0.246 F 
ENDBRANCH  37  38
ENDBRANCH  36  37
ENDBRANCH   9  36
TORSDOF 7
ENDMDL
MODEL 3
REMARK VINA RESULT:    -8.920      3.860      9.289
REMARK INTER + INTRA:         -14.259
REMARK INTER:                 -11.980
REMARK INTRA:                  -2.279
REMARK UNBOUND:                -1.949
REMARK SMILES CCc1c(F)ccc2cc(O)cc(-c3ncc4c(N5CCC[C@]6(CCO6)C5)nc(OC[C@@]56CCCN5C[C@H](F)C6)nc4c3F)c12
REMARK SMILES IDX 14 1 43 2 42 3 17 4 16 5 15 6 18 7 28 8 29 9 41 10 44 11
REMARK SMILES IDX 13 12 3 13 4 14 45 15 6 16 8 17 7 18 9 19 12 20 10 21 5 22
REMARK SMILES IDX 2 23 1 24 11 25 19 27 20 28 27 29 21 30 23 31 22 32 24 33
REMARK SMILES IDX 26 34 25 35 30 36 31 37 32 38 33 39 36 40 40 41 34 42 35 43
REMARK SMILES IDX 37 44 38 45 39 46
REMARK H PARENT 11 26
ROOT
ATOM      1  C   UNL     1     -26.120   3.429  22.035  1.00  0.00    +0.109 A 
ATOM      2  C   UNL     1     -26.576   4.371  21.112  1.00  0.00    +0.176 A 
ATOM      3  C   UNL     1     -27.453   5.379  21.505  1.00  0.00    +0.119 A 
ATOM      4  C   UNL     1     -27.834   5.426  22.844  1.00  0.00    +0.065 A 
ATOM      5  C   UNL     1     -27.325   4.450  23.711  1.00  0.00    +0.126 A 
ATOM      6  N   UNL     1     -26.471   3.470  23.341  1.00  0.00    -0.252 NA
ATOM      7  C   UNL     1     -28.722   6.452  23.209  1.00  0.00    +0.145 A 
ATOM      8  N   UNL     1     -29.195   7.324  22.306  1.00  0.00    -0.177 NA
ATOM      9  C   UNL     1     -28.764   7.200  21.049  1.00  0.00    +0.319 A 
ATOM     10  N   UNL     1     -27.910   6.267  20.610  1.00  0.00    -0.192 NA
ATOM     11  F   UNL     1     -26.172   4.303  19.832  1.00  0.00    -0.202 F 
ENDROOT
BRANCH   1  12
ATOM     12  C   UNL     1     -25.153   2.389  21.665  1.00  0.00    +0.015 A 
ATOM     13  C   UNL     1     -22.980   3.493  22.602  1.00  0.00    -0.004 A 
ATOM     14  C   UNL     1     -21.598   3.329  22.840  1.00  0.00    +0.127 A 
ATOM     15  C   UNL     1     -23.738   2.430  21.976  1.00  0.00    -0.002 A 
ATOM     16  C   UNL     1     -20.921   2.177  22.496  1.00  0.00    +0.040 A 
ATOM     17  C   UNL     1     -22.988   1.264  21.609  1.00  0.00    -0.014 A 
ATOM     18  C   UNL     1     -21.616   1.153  21.877  1.00  0.00    +0.012 A 
ATOM     19  C   UNL     1     -23.589   0.179  20.958  1.00  0.00    +0.055 A 
ATOM     20  C   UNL     1     -25.713   1.277  20.988  1.00  0.00    +0.057 A 
ATOM     21  C   UNL     1     -24.932   0.194  20.642  1.00  0.00    +0.116 A 
ATOM     22  F   UNL     1     -20.895   4.322  23.406  1.00  0.00    -0.207 F 
BRANCH  13  23
ATOM     23  C   UNL     1     -23.526   4.855  22.977  1.00  0.00    +0.036 C 
ATOM     24  C   UNL     1     -23.211   5.905  21.920  1.00  0.00    +0.009 C 
ENDBRANCH  13  23
BRANCH  21  25
ATOM     25  O   UNL     1     -25.450  -0.888  19.996  1.00  0.00    -0.508 OA
ATOM     26  H   UNL     1     -25.370  -0.752  19.037  1.00  0.00    +0.293 HD
ENDBRANCH  21  25
ENDBRANCH   1  12
BRANCH   7  27
ATOM     27  N   UNL     1     -29.127   6.583  24.562  1.00  0.00    -0.353 N 
ATOM     28  C   UNL     1     -28.365   7.677  25.213  1.00  0.00    +0.118 C 
ATOM     29  C   UNL     1     -30.589   6.755  24.693  1.00  0.00    +0.153 C 
ATOM     30  C   UNL     1     -29.081   8.200  26.468  1.00  0.00    +0.024 C 
ATOM     31  C   UNL     1     -30.991   6.613  26.178  1.00  0.00    +0.088 C 
ATOM     32  C   UNL     1     -29.903   7.107  27.143  1.00  0.00    +0.039 C 
ATOM     33  C   UNL     1     -31.629   5.269  26.584  1.00  0.00    +0.066 C 
ATOM     34  O   UNL     1     -32.250   7.306  26.433  1.00  0.00    -0.373 OA
ATOM     35  C   UNL     1     -32.939   6.048  26.613  1.00  0.00    +0.164 C 
ENDBRANCH   7  27
BRANCH   9  36
ATOM     36  O   UNL     1     -29.280   8.123  20.172  1.00  0.00    -0.461 OA
BRANCH  36  37
ATOM     37  C   UNL     1     -28.989   7.836  18.803  1.00  0.00    +0.255 C 
BRANCH  37  38
ATOM     38  C   UNL     1     -30.203   7.149  18.110  1.00  0.00    +0.058 C 
ATOM     39  C   UNL     1     -29.883   5.702  17.711  1.00  0.00    +0.027 C 
ATOM     40  N   UNL     1     -31.349   7.062  19.063  1.00  0.00    -0.291 NA
ATOM     41  C   UNL     1     -30.711   8.013  16.952  1.00  0.00    +0.065 C 
ATOM     42  C   UNL     1     -30.556   4.866  18.787  1.00  0.00    +0.018 C 
ATOM     43  C   UNL     1     -31.806   5.668  19.097  1.00  0.00    +0.085 C 
ATOM     44  C   UNL     1     -32.398   7.995  18.620  1.00  0.00    +0.123 C 
ATOM     45  C   UNL     1     -31.722   8.922  17.622  1.00  0.00    +0.182 C 
ATOM     46  F   UNL     1     -32.605   9.389  16.710  1.00  0.00    -0.246 F 
ENDBRANCH  37  38
ENDBRANCH  36  37
ENDBRANCH   9  36
TORSDOF 7
ENDMDL
MODEL 4
REMARK VINA RESULT:    -8.863      3.795      8.852
REMARK INTER + INTRA:         -14.180
REMARK INTER:                 -12.133
REMARK INTRA:                  -2.046
REMARK UNBOUND:                -1.949
REMARK SMILES CCc1c(F)ccc2cc(O)cc(-c3ncc4c(N5CCC[C@]6(CCO6)C5)nc(OC[C@@]56CCCN5C[C@H](F)C6)nc4c3F)c12
REMARK SMILES IDX 14 1 43 2 42 3 17 4 16 5 15 6 18 7 28 8 29 9 41 10 44 11
REMARK SMILES IDX 13 12 3 13 4 14 45 15 6 16 8 17 7 18 9 19 12 20 10 21 5 22
REMARK SMILES IDX 2 23 1 24 11 25 19 27 20 28 27 29 21 30 23 31 22 32 24 33
REMARK SMILES IDX 26 34 25 35 30 36 31 37 32 38 33 39 36 40 40 41 34 42 35 43
REMARK SMILES IDX 37 44 38 45 39 46
REMARK H PARENT 11 26
ROOT
ATOM      1  C   UNL     1     -26.096   3.529  22.174  1.00  0.00    +0.109 A 
ATOM      2  C   UNL     1     -26.288   4.702  21.444  1.00  0.00    +0.176 A 
ATOM      3  C   UNL     1     -27.046   5.745  21.968  1.00  0.00    +0.119 A 
ATOM      4  C   UNL     1     -27.580   5.586  23.245  1.00  0.00    +0.065 A 
ATOM      5  C   UNL     1     -27.333   4.381  23.918  1.00  0.00    +0.126 A 
ATOM      6  N   UNL     1     -26.596   3.365  23.421  1.00  0.00    -0.252 NA
ATOM      7  C   UNL     1     -28.343   6.654  23.746  1.00  0.00    +0.145 A 
ATOM      8  N   UNL     1     -28.565   7.759  23.018  1.00  0.00    -0.177 NA
ATOM      9  C   UNL     1     -28.004   7.819  21.808  1.00  0.00    +0.319 A 
ATOM     10  N   UNL     1     -27.251   6.861  21.253  1.00  0.00    -0.192 NA
ATOM     11  F   UNL     1     -25.743   4.826  20.221  1.00  0.00    -0.202 F 
ENDROOT
BRANCH   1  12
ATOM     12  C   UNL     1     -25.257   2.434  21.673  1.00  0.00    +0.015 A 
ATOM     13  C   UNL     1     -22.938   3.257  22.548  1.00  0.00    -0.004 A 
ATOM     14  C   UNL     1     -21.568   2.948  22.688  1.00  0.00    +0.127 A 
ATOM     15  C   UNL     1     -23.829   2.320  21.897  1.00  0.00    -0.002 A 
ATOM     16  C   UNL     1     -21.026   1.767  22.222  1.00  0.00    +0.040 A 
ATOM     17  C   UNL     1     -23.218   1.120  21.403  1.00  0.00    -0.014 A 
ATOM     18  C   UNL     1     -21.850   0.861  21.577  1.00  0.00    +0.012 A 
ATOM     19  C   UNL     1     -23.956   0.148  20.717  1.00  0.00    +0.055 A 
ATOM     20  C   UNL     1     -25.958   1.434  20.955  1.00  0.00    +0.057 A 
ATOM     21  C   UNL     1     -25.307   0.312  20.487  1.00  0.00    +0.116 A 
ATOM     22  F   UNL     1     -20.740   3.825  23.277  1.00  0.00    -0.207 F 
BRANCH  13  23
ATOM     23  C   UNL     1     -23.327   4.632  23.050  1.00  0.00    +0.036 C 
ATOM     24  C   UNL     1     -22.705   5.741  22.213  1.00  0.00    +0.009 C 
ENDBRANCH  13  23
BRANCH  21  25
ATOM     25  O   UNL     1     -25.964  -0.665  19.800  1.00  0.00    -0.508 OA
ATOM     26  H   UNL     1     -26.020  -1.460  20.357  1.00  0.00    +0.293 HD
ENDBRANCH  21  25
ENDBRANCH   1  12
BRANCH   7  27
ATOM     27  N   UNL     1     -28.888   6.577  25.053  1.00  0.00    -0.353 N 
ATOM     28  C   UNL     1     -28.125   7.457  25.971  1.00  0.00    +0.118 C 
ATOM     29  C   UNL     1     -30.339   6.861  25.069  1.00  0.00    +0.153 C 
ATOM     30  C   UNL     1     -28.938   7.810  27.226  1.00  0.00    +0.024 C 
ATOM     31  C   UNL     1     -30.917   6.493  26.454  1.00  0.00    +0.088 C 
ATOM     32  C   UNL     1     -29.912   6.697  27.597  1.00  0.00    +0.039 C 
ATOM     33  C   UNL     1     -31.698   5.165  26.533  1.00  0.00    +0.066 C 
ATOM     34  O   UNL     1     -32.141   7.246  26.712  1.00  0.00    -0.373 OA
ATOM     35  C   UNL     1     -32.939   6.047  26.581  1.00  0.00    +0.164 C 
ENDBRANCH   7  27
BRANCH   9  36
ATOM     36  O   UNL     1     -28.264   8.976  21.113  1.00  0.00    -0.461 OA
BRANCH  36  37
ATOM     37  C   UNL     1     -27.227   9.337  20.198  1.00  0.00    +0.255 C 
BRANCH  37  38
ATOM     38  C   UNL     1     -26.187  10.274  20.881  1.00  0.00    +0.058 C 
ATOM     39  C   UNL     1     -24.860   9.549  21.147  1.00  0.00    +0.027 C 
ATOM     40  N   UNL     1     -25.853  11.410  19.972  1.00  0.00    -0.291 NA
ATOM     41  C   UNL     1     -26.797  10.924  22.126  1.00  0.00    +0.065 C 
ATOM     42  C   UNL     1     -23.947  10.036  20.033  1.00  0.00    +0.018 C 
ATOM     43  C   UNL     1     -24.393  11.473  19.843  1.00  0.00    +0.085 C 
ATOM     44  C   UNL     1     -26.429  12.644  20.533  1.00  0.00    +0.123 C 
ATOM     45  C   UNL     1     -27.436  12.183  21.576  1.00  0.00    +0.182 C 
ATOM     46  F   UNL     1     -27.579  13.102  22.559  1.00  0.00    -0.246 F 
ENDBRANCH  37  38
ENDBRANCH  36  37
ENDBRANCH   9  36
TORSDOF 7
ENDMDL
MODEL 5
REMARK VINA RESULT:    -8.824      3.743      8.687
REMARK INTER + INTRA:         -14.126
REMARK INTER:                 -11.932
REMARK INTRA:                  -2.194
REMARK UNBOUND:                -1.949
REMARK SMILES CCc1c(F)ccc2cc(O)cc(-c3ncc4c(N5CCC[C@]6(CCO6)C5)nc(OC[C@@]56CCCN5C[C@H](F)C6)nc4c3F)c12
REMARK SMILES IDX 14 1 43 2 42 3 17 4 16 5 15 6 18 7 28 8 29 9 41 10 44 11
REMARK SMILES IDX 13 12 3 13 4 14 45 15 6 16 8 17 7 18 9 19 12 20 10 21 5 22
REMARK SMILES IDX 2 23 1 24 11 25 19 27 20 28 27 29 21 30 23 31 22 32 24 33
REMARK SMILES IDX 26 34 25 35 30 36 31 37 32 38 33 39 36 40 40 41 34 42 35 43
REMARK SMILES IDX 37 44 38 45 39 46
REMARK H PARENT 11 26
ROOT
ATOM      1  C   UNL     1     -26.058   3.511  22.105  1.00  0.00    +0.109 A 
ATOM      2  C   UNL     1     -26.213   4.686  21.368  1.00  0.00    +0.176 A 
ATOM      3  C   UNL     1     -26.964   5.743  21.873  1.00  0.00    +0.119 A 
ATOM      4  C   UNL     1     -27.528   5.598  23.139  1.00  0.00    +0.065 A 
ATOM      5  C   UNL     1     -27.319   4.390  23.820  1.00  0.00    +0.126 A 
ATOM      6  N   UNL     1     -26.589   3.359  23.341  1.00  0.00    -0.252 NA
ATOM      7  C   UNL     1     -28.283   6.680  23.620  1.00  0.00    +0.145 A 
ATOM      8  N   UNL     1     -28.469   7.787  22.884  1.00  0.00    -0.177 NA
ATOM      9  C   UNL     1     -27.880   7.833  21.687  1.00  0.00    +0.319 A 
ATOM     10  N   UNL     1     -27.133   6.861  21.151  1.00  0.00    -0.192 NA
ATOM     11  F   UNL     1     -25.639   4.796  20.158  1.00  0.00    -0.202 F 
ENDROOT
BRANCH   1  12
ATOM     12  C   UNL     1     -25.229   2.400  21.625  1.00  0.00    +0.015 A 
ATOM     13  C   UNL     1     -22.915   3.182  22.552  1.00  0.00    -0.004 A 
ATOM     14  C   UNL     1     -21.555   2.848  22.724  1.00  0.00    +0.127 A 
ATOM     15  C   UNL     1     -23.808   2.260  21.883  1.00  0.00    -0.002 A 
ATOM     16  C   UNL     1     -21.024   1.657  22.272  1.00  0.00    +0.040 A 
ATOM     17  C   UNL     1     -23.209   1.048  21.405  1.00  0.00    -0.014 A 
ATOM     18  C   UNL     1     -21.850   0.765  21.611  1.00  0.00    +0.012 A 
ATOM     19  C   UNL     1     -23.949   0.088  20.704  1.00  0.00    +0.055 A 
ATOM     20  C   UNL     1     -25.932   1.411  20.894  1.00  0.00    +0.057 A 
ATOM     21  C   UNL     1     -25.291   0.276  20.442  1.00  0.00    +0.116 A 
ATOM     22  F   UNL     1     -20.725   3.711  23.331  1.00  0.00    -0.207 F 
BRANCH  13  23
ATOM     23  C   UNL     1     -23.291   4.565  23.043  1.00  0.00    +0.036 C 
ATOM     24  C   UNL     1     -22.661   5.661  22.194  1.00  0.00    +0.009 C 
ENDBRANCH  13  23
BRANCH  21  25
ATOM     25  O   UNL     1     -25.949  -0.690  19.742  1.00  0.00    -0.508 OA
ATOM     26  H   UNL     1     -26.270  -0.311  18.906  1.00  0.00    +0.293 HD
ENDBRANCH  21  25
ENDBRANCH   1  12
BRANCH   7  27
ATOM     27  N   UNL     1     -28.858   6.617  24.914  1.00  0.00    -0.353 N 
ATOM     28  C   UNL     1     -28.126   7.518  25.837  1.00  0.00    +0.118 C 
ATOM     29  C   UNL     1     -30.312   6.885  24.892  1.00  0.00    +0.153 C 
ATOM     30  C   UNL     1     -28.973   7.881  27.068  1.00  0.00    +0.024 C 
ATOM     31  C   UNL     1     -30.919   6.531  26.269  1.00  0.00    +0.088 C 
ATOM     32  C   UNL     1     -29.944   6.763  27.432  1.00  0.00    +0.039 C 
ATOM     33  C   UNL     1     -31.688   5.196  26.349  1.00  0.00    +0.066 C 
ATOM     34  O   UNL     1     -32.156   7.275  26.486  1.00  0.00    -0.373 OA
ATOM     35  C   UNL     1     -32.939   6.066  26.354  1.00  0.00    +0.164 C 
ENDBRANCH   7  27
BRANCH   9  36
ATOM     36  O   UNL     1     -28.104   8.993  20.984  1.00  0.00    -0.461 OA
BRANCH  36  37
ATOM     37  C   UNL     1     -26.940   9.492  20.320  1.00  0.00    +0.255 C 
BRANCH  37  38
ATOM     38  C   UNL     1     -26.409  10.775  21.023  1.00  0.00    +0.058 C 
ATOM     39  C   UNL     1     -27.558  11.673  21.506  1.00  0.00    +0.027 C 
ATOM     40  N   UNL     1     -25.642  10.404  22.249  1.00  0.00    -0.291 NA
ATOM     41  C   UNL     1     -25.400  11.494  20.123  1.00  0.00    +0.065 C 
ATOM     42  C   UNL     1     -27.639  11.393  22.998  1.00  0.00    +0.018 C 
ATOM     43  C   UNL     1     -26.186  11.172  23.374  1.00  0.00    +0.085 C 
ATOM     44  C   UNL     1     -24.215  10.677  22.009  1.00  0.00    +0.123 C 
ATOM     45  C   UNL     1     -24.082  10.848  20.504  1.00  0.00    +0.182 C 
ATOM     46  F   UNL     1     -23.053  11.670  20.193  1.00  0.00    -0.246 F 
ENDBRANCH  37  38
ENDBRANCH  36  37
ENDBRANCH   9  36
TORSDOF 7
ENDMDL
MODEL 6
REMARK VINA RESULT:    -8.595      4.202      8.232
REMARK INTER + INTRA:         -13.810
REMARK INTER:                 -11.241
REMARK INTRA:                  -2.569
REMARK UNBOUND:                -1.949
REMARK SMILES CCc1c(F)ccc2cc(O)cc(-c3ncc4c(N5CCC[C@]6(CCO6)C5)nc(OC[C@@]56CCCN5C[C@H](F)C6)nc4c3F)c12
REMARK SMILES IDX 14 1 43 2 42 3 17 4 16 5 15 6 18 7 28 8 29 9 41 10 44 11
REMARK SMILES IDX 13 12 3 13 4 14 45 15 6 16 8 17 7 18 9 19 12 20 10 21 5 22
REMARK SMILES IDX 2 23 1 24 11 25 19 27 20 28 27 29 21 30 23 31 22 32 24 33
REMARK SMILES IDX 26 34 25 35 30 36 31 37 32 38 33 39 36 40 40 41 34 42 35 43
REMARK SMILES IDX 37 44 38 45 39 46
REMARK H PARENT 11 26
ROOT
ATOM      1  C   UNL     1     -25.416   3.495  21.973  1.00  0.00    +0.109 A 
ATOM      2  C   UNL     1     -26.197   3.336  23.119  1.00  0.00    +0.176 A 
ATOM      3  C   UNL     1     -27.181   4.266  23.438  1.00  0.00    +0.119 A 
ATOM      4  C   UNL     1     -27.374   5.338  22.568  1.00  0.00    +0.065 A 
ATOM      5  C   UNL     1     -26.555   5.422  21.434  1.00  0.00    +0.126 A 
ATOM      6  N   UNL     1     -25.600   4.522  21.112  1.00  0.00    -0.252 NA
ATOM      7  C   UNL     1     -28.371   6.262  22.920  1.00  0.00    +0.145 A 
ATOM      8  N   UNL     1     -29.085   6.129  24.049  1.00  0.00    -0.177 NA
ATOM      9  C   UNL     1     -28.830   5.064  24.812  1.00  0.00    +0.319 A 
ATOM     10  N   UNL     1     -27.912   4.125  24.554  1.00  0.00    -0.192 NA
ATOM     11  F   UNL     1     -25.994   2.279  23.925  1.00  0.00    -0.202 F 
ENDROOT
BRANCH   1  12
ATOM     12  C   UNL     1     -24.409   2.503  21.580  1.00  0.00    +0.015 A 
ATOM     13  C   UNL     1     -22.301   3.606  22.657  1.00  0.00    -0.004 A 
ATOM     14  C   UNL     1     -20.924   3.464  22.935  1.00  0.00    +0.127 A 
ATOM     15  C   UNL     1     -23.006   2.563  21.943  1.00  0.00    -0.002 A 
ATOM     16  C   UNL     1     -20.203   2.352  22.549  1.00  0.00    +0.040 A 
ATOM     17  C   UNL     1     -22.213   1.440  21.536  1.00  0.00    -0.014 A 
ATOM     18  C   UNL     1     -20.848   1.348  21.847  1.00  0.00    +0.012 A 
ATOM     19  C   UNL     1     -22.760   0.380  20.803  1.00  0.00    +0.055 A 
ATOM     20  C   UNL     1     -24.913   1.419  20.819  1.00  0.00    +0.057 A 
ATOM     21  C   UNL     1     -24.091   0.378  20.440  1.00  0.00    +0.116 A 
ATOM     22  F   UNL     1     -20.268   4.440  23.582  1.00  0.00    -0.207 F 
BRANCH  13  23
ATOM     23  C   UNL     1     -22.897   4.929  23.089  1.00  0.00    +0.036 C 
ATOM     24  C   UNL     1     -22.552   6.053  22.122  1.00  0.00    +0.009 C 
ENDBRANCH  13  23
BRANCH  21  25
ATOM     25  O   UNL     1     -24.557  -0.677  19.714  1.00  0.00    -0.508 OA
ATOM     26  H   UNL     1     -25.097  -1.243  20.290  1.00  0.00    +0.293 HD
ENDBRANCH  21  25
ENDBRANCH   1  12
BRANCH   7  27
ATOM     27  N   UNL     1     -28.647   7.359  22.064  1.00  0.00    -0.353 N 
ATOM     28  C   UNL     1     -30.058   7.303  21.609  1.00  0.00    +0.118 C 
ATOM     29  C   UNL     1     -28.303   8.654  22.688  1.00  0.00    +0.153 C 
ATOM     30  C   UNL     1     -30.553   8.674  21.122  1.00  0.00    +0.024 C 
ATOM     31  C   UNL     1     -28.362   9.769  21.620  1.00  0.00    +0.088 C 
ATOM     32  C   UNL     1     -29.417   9.507  20.536  1.00  0.00    +0.039 C 
ATOM     33  C   UNL     1     -27.005  10.257  21.072  1.00  0.00    +0.066 C 
ATOM     34  O   UNL     1     -28.591  11.066  22.250  1.00  0.00    -0.373 OA
ATOM     35  C   UNL     1     -27.243  11.487  21.940  1.00  0.00    +0.164 C 
ENDBRANCH   7  27
BRANCH   9  36
ATOM     36  O   UNL     1     -29.595   4.981  25.952  1.00  0.00    -0.461 OA
BRANCH  36  37
ATOM     37  C   UNL     1     -30.397   6.140  26.187  1.00  0.00    +0.255 C 
BRANCH  37  38
ATOM     38  C   UNL     1     -29.986   6.839  27.516  1.00  0.00    +0.058 C 
ATOM     39  C   UNL     1     -31.155   6.898  28.510  1.00  0.00    +0.027 C 
ATOM     40  N   UNL     1     -28.917   6.049  28.196  1.00  0.00    -0.291 NA
ATOM     41  C   UNL     1     -29.352   8.201  27.224  1.00  0.00    +0.065 C 
ATOM     42  C   UNL     1     -30.858   5.778  29.493  1.00  0.00    +0.018 C 
ATOM     43  C   UNL     1     -29.344   5.802  29.577  1.00  0.00    +0.085 C 
ATOM     44  C   UNL     1     -27.655   6.803  28.115  1.00  0.00    +0.123 C 
ATOM     45  C   UNL     1     -27.884   7.865  27.051  1.00  0.00    +0.182 C 
ATOM     46  F   UNL     1     -27.124   8.961  27.280  1.00  0.00    -0.246 F 
ENDBRANCH  37  38
ENDBRANCH  36  37
ENDBRANCH   9  36
TORSDOF 7
ENDMDL
MODEL 7
REMARK VINA RESULT:    -8.441      2.903      7.682
REMARK INTER + INTRA:         -13.597
REMARK INTER:                 -11.398
REMARK INTRA:                  -2.199
REMARK UNBOUND:                -1.949
REMARK SMILES CCc1c(F)ccc2cc(O)cc(-c3ncc4c(N5CCC[C@]6(CCO6)C5)nc(OC[C@@]56CCCN5C[C@H](F)C6)nc4c3F)c12
REMARK SMILES IDX 14 1 43 2 42 3 17 4 16 5 15 6 18 7 28 8 29 9 41 10 44 11
REMARK SMILES IDX 13 12 3 13 4 14 45 15 6 16 8 17 7 18 9 19 12 20 10 21 5 22
REMARK SMILES IDX 2 23 1 24 11 25 19 27 20 28 27 29 21 30 23 31 22 32 24 33
REMARK SMILES IDX 26 34 25 35 30 36 31 37 32 38 33 39 36 40 40 41 34 42 35 43
REMARK SMILES IDX 37 44 38 45 39 46
REMARK H PARENT 11 26
ROOT
ATOM      1  C   UNL     1     -25.108  10.249  20.206  1.00  0.00    +0.109 A 
ATOM      2  C   UNL     1     -24.716   8.922  20.022  1.00  0.00    +0.176 A 
ATOM      3  C   UNL     1     -25.619   7.883  20.220  1.00  0.00    +0.119 A 
ATOM      4  C   UNL     1     -26.924   8.213  20.581  1.00  0.00    +0.065 A 
ATOM      5  C   UNL     1     -27.243   9.569  20.737  1.00  0.00    +0.126 A 
ATOM      6  N   UNL     1     -26.375  10.586  20.543  1.00  0.00    -0.252 NA
ATOM      7  C   UNL     1     -27.812   7.143  20.778  1.00  0.00    +0.145 A 
ATOM      8  N   UNL     1     -27.414   5.868  20.647  1.00  0.00    -0.177 NA
ATOM      9  C   UNL     1     -26.146   5.656  20.291  1.00  0.00    +0.319 A 
ATOM     10  N   UNL     1     -25.231   6.608  20.068  1.00  0.00    -0.192 NA
ATOM     11  F   UNL     1     -23.452   8.644  19.656  1.00  0.00    -0.202 F 
ENDROOT
BRANCH   1  12
ATOM     12  C   UNL     1     -24.195  11.369  19.952  1.00  0.00    +0.015 A 
ATOM     13  C   UNL     1     -23.377  11.798  22.395  1.00  0.00    -0.004 A 
ATOM     14  C   UNL     1     -22.495  12.532  23.217  1.00  0.00    +0.127 A 
ATOM     15  C   UNL     1     -23.390  12.024  20.965  1.00  0.00    -0.002 A 
ATOM     16  C   UNL     1     -21.626  13.476  22.710  1.00  0.00    +0.040 A 
ATOM     17  C   UNL     1     -22.492  13.034  20.486  1.00  0.00    -0.014 A 
ATOM     18  C   UNL     1     -21.631  13.727  21.349  1.00  0.00    +0.012 A 
ATOM     19  C   UNL     1     -22.433  13.382  19.131  1.00  0.00    +0.055 A 
ATOM     20  C   UNL     1     -24.115  11.769  18.595  1.00  0.00    +0.057 A 
ATOM     21  C   UNL     1     -23.245  12.764  18.201  1.00  0.00    +0.116 A 
ATOM     22  F   UNL     1     -22.496  12.333  24.545  1.00  0.00    -0.207 F 
BRANCH  13  23
ATOM     23  C   UNL     1     -24.308  10.867  23.143  1.00  0.00    +0.036 C 
ATOM     24  C   UNL     1     -25.490  11.610  23.750  1.00  0.00    +0.009 C 
ENDBRANCH  13  23
BRANCH  21  25
ATOM     25  O   UNL     1     -23.148  13.160  16.901  1.00  0.00    -0.508 OA
ATOM     26  H   UNL     1     -23.366  14.105  16.841  1.00  0.00    +0.293 HD
ENDBRANCH  21  25
ENDBRANCH   1  12
BRANCH   7  27
ATOM     27  N   UNL     1     -29.165   7.404  21.113  1.00  0.00    -0.353 N 
ATOM     28  C   UNL     1     -30.016   7.293  19.903  1.00  0.00    +0.118 C 
ATOM     29  C   UNL     1     -29.641   6.549  22.221  1.00  0.00    +0.153 C 
ATOM     30  C   UNL     1     -31.491   7.060  20.264  1.00  0.00    +0.024 C 
ATOM     31  C   UNL     1     -31.009   7.067  22.717  1.00  0.00    +0.088 C 
ATOM     32  C   UNL     1     -31.851   7.701  21.600  1.00  0.00    +0.039 C 
ATOM     33  C   UNL     1     -30.995   7.875  24.030  1.00  0.00    +0.066 C 
ATOM     34  O   UNL     1     -31.755   5.994  23.368  1.00  0.00    -0.373 OA
ATOM     35  C   UNL     1     -31.577   6.617  24.661  1.00  0.00    +0.164 C 
ENDBRANCH   7  27
BRANCH   9  36
ATOM     36  O   UNL     1     -25.798   4.331  20.169  1.00  0.00    -0.461 OA
BRANCH  36  37
ATOM     37  C   UNL     1     -26.494   3.473  21.076  1.00  0.00    +0.255 C 
BRANCH  37  38
ATOM     38  C   UNL     1     -25.555   2.349  21.605  1.00  0.00    +0.058 C 
ATOM     39  C   UNL     1     -26.152   0.954  21.363  1.00  0.00    +0.027 C 
ATOM     40  N   UNL     1     -24.263   2.371  20.857  1.00  0.00    -0.291 NA
ATOM     41  C   UNL     1     -25.178   2.616  23.064  1.00  0.00    +0.065 C 
ATOM     42  C   UNL     1     -25.397   0.438  20.149  1.00  0.00    +0.018 C 
ATOM     43  C   UNL     1     -24.011   1.019  20.347  1.00  0.00    +0.085 C 
ATOM     44  C   UNL     1     -23.206   2.846  21.766  1.00  0.00    +0.123 C 
ATOM     45  C   UNL     1     -23.934   3.473  22.944  1.00  0.00    +0.182 C 
ATOM     46  F   UNL     1     -23.198   3.389  24.076  1.00  0.00    -0.246 F 
ENDBRANCH  37  38
ENDBRANCH  36  37
ENDBRANCH   9  36
TORSDOF 7
ENDMDL
MODEL 8
REMARK VINA RESULT:    -8.413      2.514      7.324
REMARK INTER + INTRA:         -13.559
REMARK INTER:                 -11.814
REMARK INTRA:                  -1.745
REMARK UNBOUND:                -1.949
REMARK SMILES CCc1c(F)ccc2cc(O)cc(-c3ncc4c(N5CCC[C@]6(CCO6)C5)nc(OC[C@@]56CCCN5C[C@H](F)C6)nc4c3F)c12
REMARK SMILES IDX 14 1 43 2 42 3 17 4 16 5 15 6 18 7 28 8 29 9 41 10 44 11
REMARK SMILES IDX 13 12 3 13 4 14 45 15 6 16 8 17 7 18 9 19 12 20 10 21 5 22
REMARK SMILES IDX 2 23 1 24 11 25 19 27 20 28 27 29 21 30 23 31 22 32 24 33
REMARK SMILES IDX 26 34 25 35 30 36 31 37 32 38 33 39 36 40 40 41 34 42 35 43
REMARK SMILES IDX 37 44 38 45 39 46
REMARK H PARENT 11 26
ROOT
ATOM      1  C   UNL     1     -25.971   9.483  20.543  1.00  0.00    +0.109 A 
ATOM      2  C   UNL     1     -25.410   8.216  20.710  1.00  0.00    +0.176 A 
ATOM      3  C   UNL     1     -26.111   7.077  20.329  1.00  0.00    +0.119 A 
ATOM      4  C   UNL     1     -27.371   7.246  19.758  1.00  0.00    +0.065 A 
ATOM      5  C   UNL     1     -27.861   8.551  19.616  1.00  0.00    +0.126 A 
ATOM      6  N   UNL     1     -27.187   9.665  19.978  1.00  0.00    -0.252 NA
ATOM      7  C   UNL     1     -28.056   6.077  19.388  1.00  0.00    +0.145 A 
ATOM      8  N   UNL     1     -27.531   4.860  19.597  1.00  0.00    -0.177 NA
ATOM      9  C   UNL     1     -26.314   4.803  20.144  1.00  0.00    +0.319 A 
ATOM     10  N   UNL     1     -25.580   5.859  20.516  1.00  0.00    -0.192 NA
ATOM     11  F   UNL     1     -24.184   8.094  21.249  1.00  0.00    -0.202 F 
ENDROOT
BRANCH   1  12
ATOM     12  C   UNL     1     -25.235  10.707  20.883  1.00  0.00    +0.015 A 
ATOM     13  C   UNL     1     -26.208  11.124  23.270  1.00  0.00    -0.004 A 
ATOM     14  C   UNL     1     -26.136  11.916  24.436  1.00  0.00    +0.127 A 
ATOM     15  C   UNL     1     -25.335  11.405  22.150  1.00  0.00    -0.002 A 
ATOM     16  C   UNL     1     -25.254  12.970  24.560  1.00  0.00    +0.040 A 
ATOM     17  C   UNL     1     -24.456  12.526  22.311  1.00  0.00    -0.014 A 
ATOM     18  C   UNL     1     -24.422  13.274  23.497  1.00  0.00    +0.012 A 
ATOM     19  C   UNL     1     -23.589  12.933  21.289  1.00  0.00    +0.055 A 
ATOM     20  C   UNL     1     -24.358  11.168  19.871  1.00  0.00    +0.057 A 
ATOM     21  C   UNL     1     -23.552  12.268  20.080  1.00  0.00    +0.116 A 
ATOM     22  F   UNL     1     -26.957  11.664  25.468  1.00  0.00    -0.207 F 
BRANCH  13  23
ATOM     23  C   UNL     1     -27.291  10.066  23.293  1.00  0.00    +0.036 C 
ATOM     24  C   UNL     1     -28.661  10.647  22.967  1.00  0.00    +0.009 C 
ENDBRANCH  13  23
BRANCH  21  25
ATOM     25  O   UNL     1     -22.697  12.725  19.123  1.00  0.00    -0.508 OA
ATOM     26  H   UNL     1     -21.794  12.731  19.483  1.00  0.00    +0.293 HD
ENDBRANCH  21  25
ENDBRANCH   1  12
BRANCH   7  27
ATOM     27  N   UNL     1     -29.328   6.173  18.769  1.00  0.00    -0.353 N 
ATOM     28  C   UNL     1     -29.186   6.748  17.409  1.00  0.00    +0.118 C 
ATOM     29  C   UNL     1     -30.047   4.881  18.767  1.00  0.00    +0.153 C 
ATOM     30  C   UNL     1     -30.396   6.416  16.522  1.00  0.00    +0.024 C 
ATOM     31  C   UNL     1     -31.514   5.112  18.338  1.00  0.00    +0.088 C 
ATOM     32  C   UNL     1     -31.673   6.270  17.343  1.00  0.00    +0.039 C 
ATOM     33  C   UNL     1     -32.561   5.107  19.471  1.00  0.00    +0.066 C 
ATOM     34  O   UNL     1     -32.082   3.885  17.786  1.00  0.00    -0.373 OA
ATOM     35  C   UNL     1     -32.936   3.728  18.942  1.00  0.00    +0.164 C 
ENDBRANCH   7  27
BRANCH   9  36
ATOM     36  O   UNL     1     -25.828   3.531  20.329  1.00  0.00    -0.461 OA
BRANCH  36  37
ATOM     37  C   UNL     1     -25.959   3.060  21.672  1.00  0.00    +0.255 C 
BRANCH  37  38
ATOM     38  C   UNL     1     -24.895   1.967  21.982  1.00  0.00    +0.058 C 
ATOM     39  C   UNL     1     -25.435   0.556  21.702  1.00  0.00    +0.027 C 
ATOM     40  N   UNL     1     -23.716   2.135  21.083  1.00  0.00    -0.291 NA
ATOM     41  C   UNL     1     -24.346   2.148  23.400  1.00  0.00    +0.065 C 
ATOM     42  C   UNL     1     -24.817   0.187  20.362  1.00  0.00    +0.018 C 
ATOM     43  C   UNL     1     -23.453   0.846  20.433  1.00  0.00    +0.085 C 
ATOM     44  C   UNL     1     -22.578   2.611  21.887  1.00  0.00    +0.123 C 
ATOM     45  C   UNL     1     -23.181   3.095  23.196  1.00  0.00    +0.182 C 
ATOM     46  F   UNL     1     -22.300   2.977  24.216  1.00  0.00    -0.246 F 
ENDBRANCH  37  38
ENDBRANCH  36  37
ENDBRANCH   9  36
TORSDOF 7
ENDMDL
MODEL 9
REMARK VINA RESULT:    -8.334      2.390      7.117
REMARK INTER + INTRA:         -13.450
REMARK INTER:                 -11.153
REMARK INTRA:                  -2.297
REMARK UNBOUND:                -1.949
REMARK SMILES CCc1c(F)ccc2cc(O)cc(-c3ncc4c(N5CCC[C@]6(CCO6)C5)nc(OC[C@@]56CCCN5C[C@H](F)C6)nc4c3F)c12
REMARK SMILES IDX 14 1 43 2 42 3 17 4 16 5 15 6 18 7 28 8 29 9 41 10 44 11
REMARK SMILES IDX 13 12 3 13 4 14 45 15 6 16 8 17 7 18 9 19 12 20 10 21 5 22
REMARK SMILES IDX 2 23 1 24 11 25 19 27 20 28 27 29 21 30 23 31 22 32 24 33
REMARK SMILES IDX 26 34 25 35 30 36 31 37 32 38 33 39 36 40 40 41 34 42 35 43
REMARK SMILES IDX 37 44 38 45 39 46
REMARK H PARENT 11 26
ROOT
ATOM      1  C   UNL     1     -25.273   9.903  20.438  1.00  0.00    +0.109 A 
ATOM      2  C   UNL     1     -24.665   8.711  20.835  1.00  0.00    +0.176 A 
ATOM      3  C   UNL     1     -25.372   7.513  20.805  1.00  0.00    +0.119 A 
ATOM      4  C   UNL     1     -26.687   7.542  20.345  1.00  0.00    +0.065 A 
ATOM      5  C   UNL     1     -27.222   8.777  19.955  1.00  0.00    +0.126 A 
ATOM      6  N   UNL     1     -26.544   9.945  19.976  1.00  0.00    -0.252 NA
ATOM      7  C   UNL     1     -27.375   6.318  20.330  1.00  0.00    +0.145 A 
ATOM      8  N   UNL     1     -26.800   5.184  20.760  1.00  0.00    -0.177 NA
ATOM      9  C   UNL     1     -25.534   5.259  21.175  1.00  0.00    +0.319 A 
ATOM     10  N   UNL     1     -24.793   6.374  21.213  1.00  0.00    -0.192 NA
ATOM     11  F   UNL     1     -23.388   8.720  21.257  1.00  0.00    -0.202 F 
ENDROOT
BRANCH   1  12
ATOM     12  C   UNL     1     -24.539  11.173  20.406  1.00  0.00    +0.015 A 
ATOM     13  C   UNL     1     -24.929  11.939  22.872  1.00  0.00    -0.004 A 
ATOM     14  C   UNL     1     -24.620  12.901  23.857  1.00  0.00    +0.127 A 
ATOM     15  C   UNL     1     -24.366  12.056  21.544  1.00  0.00    -0.002 A 
ATOM     16  C   UNL     1     -23.787  13.973  23.606  1.00  0.00    +0.040 A 
ATOM     17  C   UNL     1     -23.531  13.199  21.320  1.00  0.00    -0.014 A 
ATOM     18  C   UNL     1     -23.251  14.121  22.339  1.00  0.00    +0.012 A 
ATOM     19  C   UNL     1     -22.956  13.456  20.069  1.00  0.00    +0.055 A 
ATOM     20  C   UNL     1     -23.954  11.485  19.154  1.00  0.00    +0.057 A 
ATOM     21  C   UNL     1     -23.176  12.614  18.998  1.00  0.00    +0.116 A 
ATOM     22  F   UNL     1     -25.156  12.800  25.084  1.00  0.00    -0.207 F 
BRANCH  13  23
ATOM     23  C   UNL     1     -25.922  10.884  23.313  1.00  0.00    +0.036 C 
ATOM     24  C   UNL     1     -27.362  11.357  23.161  1.00  0.00    +0.009 C 
ENDBRANCH  13  23
BRANCH  21  25
ATOM     25  O   UNL     1     -22.599  12.929  17.805  1.00  0.00    -0.508 OA
ATOM     26  H   UNL     1     -22.395  12.109  17.325  1.00  0.00    +0.293 HD
ENDBRANCH  21  25
ENDBRANCH   1  12
BRANCH   7  27
ATOM     27  N   UNL     1     -28.705   6.265  19.841  1.00  0.00    -0.353 N 
ATOM     28  C   UNL     1     -28.786   5.325  18.696  1.00  0.00    +0.118 C 
ATOM     29  C   UNL     1     -29.679   5.945  20.907  1.00  0.00    +0.153 C 
ATOM     30  C   UNL     1     -30.226   4.842  18.458  1.00  0.00    +0.024 C 
ATOM     31  C   UNL     1     -31.112   6.175  20.377  1.00  0.00    +0.088 C 
ATOM     32  C   UNL     1     -31.248   5.894  18.874  1.00  0.00    +0.039 C 
ATOM     33  C   UNL     1     -31.808   7.472  20.841  1.00  0.00    +0.066 C 
ATOM     34  O   UNL     1     -32.069   5.373  21.134  1.00  0.00    -0.373 OA
ATOM     35  C   UNL     1     -32.613   6.559  21.757  1.00  0.00    +0.164 C 
ENDBRANCH   7  27
BRANCH   9  36
ATOM     36  O   UNL     1     -24.998   4.066  21.599  1.00  0.00    -0.461 OA
BRANCH  36  37
ATOM     37  C   UNL     1     -24.382   4.143  22.886  1.00  0.00    +0.255 C 
BRANCH  37  38
ATOM     38  C   UNL     1     -22.927   3.591  22.837  1.00  0.00    +0.058 C 
ATOM     39  C   UNL     1     -21.898   4.721  22.686  1.00  0.00    +0.027 C 
ATOM     40  N   UNL     1     -22.596   2.912  24.125  1.00  0.00    -0.291 NA
ATOM     41  C   UNL     1     -22.808   2.501  21.769  1.00  0.00    +0.065 C 
ATOM     42  C   UNL     1     -21.339   4.898  24.089  1.00  0.00    +0.018 C 
ATOM     43  C   UNL     1     -21.341   3.481  24.629  1.00  0.00    +0.085 C 
ATOM     44  C   UNL     1     -22.508   1.463  23.881  1.00  0.00    +0.123 C 
ATOM     45  C   UNL     1     -23.165   1.238  22.528  1.00  0.00    +0.182 C 
ATOM     46  F   UNL     1     -22.646   0.156  21.905  1.00  0.00    -0.246 F 
ENDBRANCH  37  38
ENDBRANCH  36  37
ENDBRANCH   9  36
TORSDOF 7
ENDMDL
