MODEL 1
REMARK VINA RESULT:   -13.767      0.000      0.000
REMARK INTER + INTRA:         -19.494
REMARK INTER:                 -18.193
REMARK INTRA:                  -1.301
REMARK UNBOUND:                -1.301
REMARK SMILES C#Cc1c(F)ccc2cc(O)cc(-c3ncc4c(N5C[C@H]6CC[C@@H](C5)N6)nc(OC[C@@]56CCCN5C[C@H](F)C6)nc4c3F)c12
REMARK SMILES IDX 14 1 42 2 41 3 17 4 16 5 15 6 18 7 27 8 28 9 40 10 43 11
REMARK SMILES IDX 13 12 2 13 3 14 4 15 44 16 6 17 8 18 7 19 9 20 12 21 10 22
REMARK SMILES IDX 1 23 5 24 11 25 19 27 20 28 25 29 21 30 24 31 22 32 26 33
REMARK SMILES IDX 23 34 29 36 30 37 31 38 32 39 35 40 39 41 33 42 34 43 36 44
REMARK SMILES IDX 37 45 38 46
REMARK H PARENT 11 26 26 35
ROOT
ATOM      1  C   UNL     1      -0.688   3.519 -24.421  1.00  0.00    +0.109 A 
ATOM      2  C   UNL     1      -0.091   4.679 -23.931  1.00  0.00    +0.176 A 
ATOM      3  C   UNL     1       1.263   4.699 -23.618  1.00  0.00    +0.119 A 
ATOM      4  C   UNL     1       2.007   3.538 -23.840  1.00  0.00    +0.065 A 
ATOM      5  C   UNL     1       1.331   2.415 -24.338  1.00  0.00    +0.126 A 
ATOM      6  N   UNL     1       0.017   2.386 -24.654  1.00  0.00    -0.252 NA
ATOM      7  C   UNL     1       3.375   3.591 -23.517  1.00  0.00    +0.145 A 
ATOM      8  N   UNL     1       3.914   4.692 -22.973  1.00  0.00    -0.177 NA
ATOM      9  C   UNL     1       3.116   5.744 -22.788  1.00  0.00    +0.319 A 
ATOM     10  N   UNL     1       1.822   5.808 -23.112  1.00  0.00    -0.192 NA
ATOM     11  F   UNL     1      -0.832   5.788 -23.755  1.00  0.00    -0.202 F 
ENDROOT
BRANCH   1  12
ATOM     12  C   UNL     1      -2.108   3.466 -24.791  1.00  0.00    +0.016 A 
ATOM     13  C   UNL     1      -1.829   3.138 -21.706  1.00  0.00    -0.067 C 
ATOM     14  C   UNL     1      -3.081   3.259 -22.403  1.00  0.00    +0.068 A 
ATOM     15  C   UNL     1      -4.230   3.216 -21.598  1.00  0.00    +0.139 A 
ATOM     16  C   UNL     1      -3.186   3.384 -23.832  1.00  0.00    +0.010 A 
ATOM     17  C   UNL     1      -5.499   3.279 -22.142  1.00  0.00    +0.041 A 
ATOM     18  C   UNL     1      -4.515   3.421 -24.361  1.00  0.00    -0.013 A 
ATOM     19  C   UNL     1      -5.638   3.374 -23.520  1.00  0.00    +0.012 A 
ATOM     20  C   UNL     1      -4.742   3.499 -25.740  1.00  0.00    +0.055 A 
ATOM     21  C   UNL     1      -2.385   3.524 -26.176  1.00  0.00    +0.057 A 
ATOM     22  C   UNL     1      -3.688   3.538 -26.634  1.00  0.00    +0.116 A 
ATOM     23  C   UNL     1      -0.816   3.022 -21.071  1.00  0.00    +0.010 C 
ATOM     24  F   UNL     1      -4.122   3.104 -20.264  1.00  0.00    -0.206 F 
BRANCH  22  25
ATOM     25  O   UNL     1      -3.980   3.598 -27.964  1.00  0.00    -0.508 OA
ATOM     26  H   UNL     1      -4.108   4.528 -28.216  1.00  0.00    +0.293 HD
ENDBRANCH  22  25
ENDBRANCH   1  12
BRANCH   7  27
ATOM     27  N   UNL     1       4.206   2.488 -23.754  1.00  0.00    -0.353 N 
ATOM     28  C   UNL     1       5.652   2.806 -23.867  1.00  0.00    +0.137 C 
ATOM     29  C   UNL     1       3.884   1.245 -23.005  1.00  0.00    +0.137 C 
ATOM     30  C   UNL     1       6.494   2.326 -22.652  1.00  0.00    +0.073 C 
ATOM     31  C   UNL     1       4.903   0.883 -21.889  1.00  0.00    +0.073 C 
ATOM     32  C   UNL     1       6.022   2.943 -21.331  1.00  0.00    +0.022 C 
ATOM     33  N   UNL     1       6.284   0.876 -22.433  1.00  0.00    -0.308 NA
ATOM     34  C   UNL     1       5.009   1.936 -20.788  1.00  0.00    +0.022 C 
ATOM     35  H   UNL     1       6.920   0.559 -21.700  1.00  0.00    +0.123 HD
ENDBRANCH   7  27
BRANCH   9  36
ATOM     36  O   UNL     1       3.746   6.851 -22.267  1.00  0.00    -0.461 OA
BRANCH  36  37
ATOM     37  C   UNL     1       5.154   6.665 -22.086  1.00  0.00    +0.255 C 
BRANCH  37  38
ATOM     38  C   UNL     1       5.777   7.909 -21.404  1.00  0.00    +0.058 C 
ATOM     39  C   UNL     1       7.035   7.505 -20.630  1.00  0.00    +0.027 C 
ATOM     40  N   UNL     1       6.268   8.901 -22.411  1.00  0.00    -0.291 NA
ATOM     41  C   UNL     1       4.749   8.651 -20.514  1.00  0.00    +0.065 C 
ATOM     42  C   UNL     1       7.855   8.776 -20.593  1.00  0.00    +0.018 C 
ATOM     43  C   UNL     1       7.573   9.411 -21.943  1.00  0.00    +0.085 C 
ATOM     44  C   UNL     1       5.244   9.960 -22.463  1.00  0.00    +0.123 C 
ATOM     45  C   UNL     1       4.672  10.061 -21.063  1.00  0.00    +0.182 C 
ATOM     46  F   UNL     1       5.463  10.873 -20.306  1.00  0.00    -0.246 F 
ENDBRANCH  37  38
ENDBRANCH  36  37
ENDBRANCH   9  36
TORSDOF 6
ENDMDL
