MODEL 1
REMARK VINA RESULT:    -8.926      0.000      0.000
REMARK INTER + INTRA:         -14.395
REMARK INTER:                 -12.317
REMARK INTRA:                  -2.078
REMARK UNBOUND:                -2.078
REMARK SMILES CCc1c(F)ccc2cc(O)cc(-c3ncc4c(N5CCC[C@]6(CCO6)C5)nc(OC[C@@]56CCCN5C[C@H](F)C6)nc4c3F)c12
REMARK SMILES IDX 14 1 43 2 42 3 17 4 16 5 15 6 18 7 28 8 29 9 41 10 44 11
REMARK SMILES IDX 13 12 3 13 4 14 45 15 6 16 8 17 7 18 9 19 12 20 10 21 5 22
REMARK SMILES IDX 2 23 1 24 11 25 19 27 20 28 27 29 21 30 23 31 22 32 24 33
REMARK SMILES IDX 26 34 25 35 30 36 31 37 32 38 33 39 36 40 40 41 34 42 35 43
REMARK SMILES IDX 37 44 38 45 39 46
REMARK H PARENT 11 26
ROOT
ATOM      1  C   UNL     1      -0.623   3.821 -24.264  1.00  0.00    +0.109 A 
ATOM      2  C   UNL     1      -0.079   5.065 -23.950  1.00  0.00    +0.176 A 
ATOM      3  C   UNL     1       1.237   5.171 -23.512  1.00  0.00    +0.119 A 
ATOM      4  C   UNL     1       1.983   3.998 -23.394  1.00  0.00    +0.065 A 
ATOM      5  C   UNL     1       1.350   2.784 -23.689  1.00  0.00    +0.126 A 
ATOM      6  N   UNL     1       0.072   2.670 -24.114  1.00  0.00    -0.252 NA
ATOM      7  C   UNL     1       3.312   4.138 -22.956  1.00  0.00    +0.145 A 
ATOM      8  N   UNL     1       3.824   5.338 -22.638  1.00  0.00    -0.177 NA
ATOM      9  C   UNL     1       3.028   6.396 -22.799  1.00  0.00    +0.319 A 
ATOM     10  N   UNL     1       1.758   6.369 -23.212  1.00  0.00    -0.192 NA
ATOM     11  F   UNL     1      -0.830   6.174 -24.071  1.00  0.00    -0.202 F 
ENDROOT
BRANCH   1  12
ATOM     12  C   UNL     1      -2.023   3.669 -24.679  1.00  0.00    +0.015 A 
ATOM     13  C   UNL     1      -3.157   3.695 -22.326  1.00  0.00    -0.004 A 
ATOM     14  C   UNL     1      -4.365   3.552 -21.613  1.00  0.00    +0.127 A 
ATOM     15  C   UNL     1      -3.147   3.574 -23.769  1.00  0.00    -0.002 A 
ATOM     16  C   UNL     1      -5.566   3.293 -22.241  1.00  0.00    +0.040 A 
ATOM     17  C   UNL     1      -4.422   3.334 -24.381  1.00  0.00    -0.014 A 
ATOM     18  C   UNL     1      -5.591   3.191 -23.620  1.00  0.00    +0.012 A 
ATOM     19  C   UNL     1      -4.562   3.235 -25.771  1.00  0.00    +0.055 A 
ATOM     20  C   UNL     1      -2.218   3.583 -26.080  1.00  0.00    +0.057 A 
ATOM     21  C   UNL     1      -3.474   3.370 -26.608  1.00  0.00    +0.116 A 
ATOM     22  F   UNL     1      -4.373   3.681 -20.276  1.00  0.00    -0.207 F 
BRANCH  13  23
ATOM     23  C   UNL     1      -1.958   4.051 -21.470  1.00  0.00    +0.036 C 
ATOM     24  C   UNL     1      -1.269   2.813 -20.913  1.00  0.00    +0.009 C 
ENDBRANCH  13  23
BRANCH  21  25
ATOM     25  O   UNL     1      -3.682   3.278 -27.951  1.00  0.00    -0.508 OA
ATOM     26  H   UNL     1      -3.894   2.357 -28.175  1.00  0.00    +0.293 HD
ENDBRANCH  21  25
ENDBRANCH   1  12
BRANCH   7  27
ATOM     27  N   UNL     1       4.143   2.994 -22.853  1.00  0.00    -0.353 N 
ATOM     28  C   UNL     1       5.483   3.285 -23.421  1.00  0.00    +0.118 C 
ATOM     29  C   UNL     1       4.211   2.471 -21.473  1.00  0.00    +0.153 C 
ATOM     30  C   UNL     1       6.547   2.306 -22.900  1.00  0.00    +0.024 C 
ATOM     31  C   UNL     1       4.893   1.084 -21.481  1.00  0.00    +0.088 C 
ATOM     32  C   UNL     1       5.947   0.940 -22.588  1.00  0.00    +0.039 C 
ATOM     33  C   UNL     1       3.958  -0.135 -21.341  1.00  0.00    +0.066 C 
ATOM     34  O   UNL     1       5.484   0.800 -20.177  1.00  0.00    -0.373 OA
ATOM     35  C   UNL     1       4.487  -0.213 -19.913  1.00  0.00    +0.164 C 
ENDBRANCH   7  27
BRANCH   9  36
ATOM     36  O   UNL     1       3.556   7.597 -22.393  1.00  0.00    -0.461 OA
BRANCH  36  37
ATOM     37  C   UNL     1       4.888   7.462 -21.888  1.00  0.00    +0.255 C 
BRANCH  37  38
ATOM     38  C   UNL     1       5.479   8.852 -21.554  1.00  0.00    +0.058 C 
ATOM     39  C   UNL     1       6.819   8.713 -20.792  1.00  0.00    +0.027 C 
ATOM     40  N   UNL     1       5.788   9.619 -22.802  1.00  0.00    -0.291 NA
ATOM     41  C   UNL     1       4.458   9.710 -20.797  1.00  0.00    +0.065 C 
ATOM     42  C   UNL     1       7.834   9.505 -21.599  1.00  0.00    +0.018 C 
ATOM     43  C   UNL     1       7.242   9.511 -22.993  1.00  0.00    +0.085 C 
ATOM     44  C   UNL     1       5.366  11.023 -22.567  1.00  0.00    +0.123 C 
ATOM     45  C   UNL     1       4.847  11.126 -21.141  1.00  0.00    +0.182 C 
ATOM     46  F   UNL     1       5.852  11.529 -20.316  1.00  0.00    -0.246 F 
ENDBRANCH  37  38
ENDBRANCH  36  37
ENDBRANCH   9  36
TORSDOF 7
ENDMDL
MODEL 2
REMARK VINA RESULT:    -8.751      3.807     11.320
REMARK INTER + INTRA:         -14.154
REMARK INTER:                 -12.112
REMARK INTRA:                  -2.042
REMARK UNBOUND:                -2.078
REMARK SMILES CCc1c(F)ccc2cc(O)cc(-c3ncc4c(N5CCC[C@]6(CCO6)C5)nc(OC[C@@]56CCCN5C[C@H](F)C6)nc4c3F)c12
REMARK SMILES IDX 14 1 43 2 42 3 17 4 16 5 15 6 18 7 28 8 29 9 41 10 44 11
REMARK SMILES IDX 13 12 3 13 4 14 45 15 6 16 8 17 7 18 9 19 12 20 10 21 5 22
REMARK SMILES IDX 2 23 1 24 11 25 19 27 20 28 27 29 21 30 23 31 22 32 24 33
REMARK SMILES IDX 26 34 25 35 30 36 31 37 32 38 33 39 36 40 40 41 34 42 35 43
REMARK SMILES IDX 37 44 38 45 39 46
REMARK H PARENT 11 26
ROOT
ATOM      1  C   UNL     1       8.129   7.002 -20.587  1.00  0.00    +0.109 A 
ATOM      2  C   UNL     1       7.015   6.315 -21.065  1.00  0.00    +0.176 A 
ATOM      3  C   UNL     1       5.900   7.008 -21.526  1.00  0.00    +0.119 A 
ATOM      4  C   UNL     1       5.934   8.401 -21.487  1.00  0.00    +0.065 A 
ATOM      5  C   UNL     1       7.074   9.016 -20.952  1.00  0.00    +0.126 A 
ATOM      6  N   UNL     1       8.162   8.352 -20.502  1.00  0.00    -0.252 NA
ATOM      7  C   UNL     1       4.796   9.073 -21.965  1.00  0.00    +0.145 A 
ATOM      8  N   UNL     1       3.720   8.404 -22.408  1.00  0.00    -0.177 NA
ATOM      9  C   UNL     1       3.796   7.072 -22.414  1.00  0.00    +0.319 A 
ATOM     10  N   UNL     1       4.831   6.343 -21.986  1.00  0.00    -0.192 NA
ATOM     11  F   UNL     1       7.016   4.970 -21.083  1.00  0.00    -0.202 F 
ENDROOT
BRANCH   1  12
ATOM     12  C   UNL     1       9.300   6.301 -20.046  1.00  0.00    +0.015 A 
ATOM     13  C   UNL     1      10.584   5.861 -22.278  1.00  0.00    -0.004 A 
ATOM     14  C   UNL     1      11.700   5.240 -22.877  1.00  0.00    +0.127 A 
ATOM     15  C   UNL     1      10.379   5.759 -20.848  1.00  0.00    -0.002 A 
ATOM     16  C   UNL     1      12.626   4.522 -22.148  1.00  0.00    +0.040 A 
ATOM     17  C   UNL     1      11.380   5.028 -20.127  1.00  0.00    -0.014 A 
ATOM     18  C   UNL     1      12.465   4.424 -20.778  1.00  0.00    +0.012 A 
ATOM     19  C   UNL     1      11.326   4.886 -18.735  1.00  0.00    +0.055 A 
ATOM     20  C   UNL     1       9.299   6.149 -18.638  1.00  0.00    +0.057 A 
ATOM     21  C   UNL     1      10.303   5.451 -18.001  1.00  0.00    +0.116 A 
ATOM     22  F   UNL     1      11.896   5.350 -24.201  1.00  0.00    -0.207 F 
BRANCH  13  23
ATOM     23  C   UNL     1       9.724   6.665 -23.231  1.00  0.00    +0.036 C 
ATOM     24  C   UNL     1       8.819   5.775 -24.071  1.00  0.00    +0.009 C 
ENDBRANCH  13  23
BRANCH  21  25
ATOM     25  O   UNL     1      10.318   5.288 -16.649  1.00  0.00    -0.508 OA
ATOM     26  H   UNL     1      10.907   4.547 -16.427  1.00  0.00    +0.293 HD
ENDBRANCH  21  25
ENDBRANCH   1  12
BRANCH   7  27
ATOM     27  N   UNL     1       4.776  10.491 -21.996  1.00  0.00    -0.353 N 
ATOM     28  C   UNL     1       4.596  10.968 -23.390  1.00  0.00    +0.118 C 
ATOM     29  C   UNL     1       3.779  11.060 -21.066  1.00  0.00    +0.153 C 
ATOM     30  C   UNL     1       4.071  12.411 -23.433  1.00  0.00    +0.024 C 
ATOM     31  C   UNL     1       4.000  12.584 -20.942  1.00  0.00    +0.088 C 
ATOM     32  C   UNL     1       4.545  13.218 -22.229  1.00  0.00    +0.039 C 
ATOM     33  C   UNL     1       4.704  13.067 -19.656  1.00  0.00    +0.066 C 
ATOM     34  O   UNL     1       2.765  13.245 -20.533  1.00  0.00    -0.373 OA
ATOM     35  C   UNL     1       3.318  13.534 -19.228  1.00  0.00    +0.164 C 
ENDBRANCH   7  27
BRANCH   9  36
ATOM     36  O   UNL     1       2.653   6.418 -22.800  1.00  0.00    -0.461 OA
BRANCH  36  37
ATOM     37  C   UNL     1       2.905   5.063 -23.184  1.00  0.00    +0.255 C 
BRANCH  37  38
ATOM     38  C   UNL     1       1.598   4.388 -23.661  1.00  0.00    +0.058 C 
ATOM     39  C   UNL     1       1.591   4.226 -25.201  1.00  0.00    +0.027 C 
ATOM     40  N   UNL     1       1.468   3.007 -23.098  1.00  0.00    -0.291 NA
ATOM     41  C   UNL     1       0.371   5.150 -23.144  1.00  0.00    +0.065 C 
ATOM     42  C   UNL     1       1.354   2.748 -25.457  1.00  0.00    +0.018 C 
ATOM     43  C   UNL     1       1.845   2.090 -24.184  1.00  0.00    +0.085 C 
ATOM     44  C   UNL     1       0.050   2.831 -22.695  1.00  0.00    +0.123 C 
ATOM     45  C   UNL     1      -0.706   4.097 -23.070  1.00  0.00    +0.182 C 
ATOM     46  F   UNL     1      -1.272   3.945 -24.298  1.00  0.00    -0.246 F 
ENDBRANCH  37  38
ENDBRANCH  36  37
ENDBRANCH   9  36
TORSDOF 7
ENDMDL
MODEL 3
REMARK VINA RESULT:    -8.340      4.510      7.698
REMARK INTER + INTRA:         -13.586
REMARK INTER:                 -11.668
REMARK INTRA:                  -1.919
REMARK UNBOUND:                -2.078
REMARK SMILES CCc1c(F)ccc2cc(O)cc(-c3ncc4c(N5CCC[C@]6(CCO6)C5)nc(OC[C@@]56CCCN5C[C@H](F)C6)nc4c3F)c12
REMARK SMILES IDX 14 1 43 2 42 3 17 4 16 5 15 6 18 7 28 8 29 9 41 10 44 11
REMARK SMILES IDX 13 12 3 13 4 14 45 15 6 16 8 17 7 18 9 19 12 20 10 21 5 22
REMARK SMILES IDX 2 23 1 24 11 25 19 27 20 28 27 29 21 30 23 31 22 32 24 33
REMARK SMILES IDX 26 34 25 35 30 36 31 37 32 38 33 39 36 40 40 41 34 42 35 43
REMARK SMILES IDX 37 44 38 45 39 46
REMARK H PARENT 11 26
ROOT
ATOM      1  C   UNL     1       5.968   3.530 -22.402  1.00  0.00    +0.109 A 
ATOM      2  C   UNL     1       6.583   4.384 -21.487  1.00  0.00    +0.176 A 
ATOM      3  C   UNL     1       7.478   5.357 -21.920  1.00  0.00    +0.119 A 
ATOM      4  C   UNL     1       7.741   5.443 -23.286  1.00  0.00    +0.065 A 
ATOM      5  C   UNL     1       7.115   4.520 -24.136  1.00  0.00    +0.126 A 
ATOM      6  N   UNL     1       6.244   3.571 -23.726  1.00  0.00    -0.252 NA
ATOM      7  C   UNL     1       8.644   6.440 -23.693  1.00  0.00    +0.145 A 
ATOM      8  N   UNL     1       9.245   7.247 -22.805  1.00  0.00    -0.177 NA
ATOM      9  C   UNL     1       8.914   7.089 -21.522  1.00  0.00    +0.319 A 
ATOM     10  N   UNL     1       8.066   6.177 -21.037  1.00  0.00    -0.192 NA
ATOM     11  F   UNL     1       6.309   4.268 -20.176  1.00  0.00    -0.202 F 
ENDROOT
BRANCH   1  12
ATOM     12  C   UNL     1       5.059   2.460 -21.974  1.00  0.00    +0.015 A 
ATOM     13  C   UNL     1       2.805   3.466 -22.829  1.00  0.00    -0.004 A 
ATOM     14  C   UNL     1       1.404   3.316 -22.872  1.00  0.00    +0.127 A 
ATOM     15  C   UNL     1       3.620   2.482 -22.148  1.00  0.00    -0.002 A 
ATOM     16  C   UNL     1       0.757   2.250 -22.281  1.00  0.00    +0.040 A 
ATOM     17  C   UNL     1       2.909   1.378 -21.573  1.00  0.00    -0.014 A 
ATOM     18  C   UNL     1       1.511   1.284 -21.639  1.00  0.00    +0.012 A 
ATOM     19  C   UNL     1       3.577   0.334 -20.920  1.00  0.00    +0.055 A 
ATOM     20  C   UNL     1       5.692   1.372 -21.324  1.00  0.00    +0.057 A 
ATOM     21  C   UNL     1       4.952   0.328 -20.809  1.00  0.00    +0.116 A 
ATOM     22  F   UNL     1       0.652   4.222 -23.519  1.00  0.00    -0.207 F 
BRANCH  13  23
ATOM     23  C   UNL     1       3.334   4.659 -23.600  1.00  0.00    +0.036 C 
ATOM     24  C   UNL     1       3.235   5.947 -22.795  1.00  0.00    +0.009 C 
ENDBRANCH  13  23
BRANCH  21  25
ATOM     25  O   UNL     1       5.540  -0.724 -20.174  1.00  0.00    -0.508 OA
ATOM     26  H   UNL     1       5.998  -0.399 -19.382  1.00  0.00    +0.293 HD
ENDBRANCH  21  25
ENDBRANCH   1  12
BRANCH   7  27
ATOM     27  N   UNL     1       8.926   6.615 -25.072  1.00  0.00    -0.353 N 
ATOM     28  C   UNL     1       8.938   8.060 -25.410  1.00  0.00    +0.118 C 
ATOM     29  C   UNL     1      10.165   5.923 -25.483  1.00  0.00    +0.153 C 
ATOM     30  C   UNL     1       9.710   8.333 -26.710  1.00  0.00    +0.024 C 
ATOM     31  C   UNL     1      10.264   5.917 -27.026  1.00  0.00    +0.088 C 
ATOM     32  C   UNL     1       9.625   7.154 -27.673  1.00  0.00    +0.039 C 
ATOM     33  C   UNL     1       9.910   4.588 -27.725  1.00  0.00    +0.066 C 
ATOM     34  O   UNL     1      11.655   5.785 -27.446  1.00  0.00    -0.373 OA
ATOM     35  C   UNL     1      11.414   4.442 -27.925  1.00  0.00    +0.164 C 
ENDBRANCH   7  27
BRANCH   9  36
ATOM     36  O   UNL     1       9.603   7.876 -20.634  1.00  0.00    -0.461 OA
BRANCH  36  37
ATOM     37  C   UNL     1       9.114   7.741 -19.296  1.00  0.00    +0.255 C 
BRANCH  37  38
ATOM     38  C   UNL     1      10.289   7.514 -18.315  1.00  0.00    +0.058 C 
ATOM     39  C   UNL     1       9.767   7.185 -16.895  1.00  0.00    +0.027 C 
ATOM     40  N   UNL     1      11.121   6.342 -18.734  1.00  0.00    -0.291 NA
ATOM     41  C   UNL     1      11.247   8.712 -18.328  1.00  0.00    +0.065 C 
ATOM     42  C   UNL     1      10.413   5.864 -16.517  1.00  0.00    +0.018 C 
ATOM     43  C   UNL     1      10.723   5.231 -17.857  1.00  0.00    +0.085 C 
ATOM     44  C   UNL     1      12.542   6.722 -18.534  1.00  0.00    +0.123 C 
ATOM     45  C   UNL     1      12.576   8.118 -17.932  1.00  0.00    +0.182 C 
ATOM     46  F   UNL     1      12.644   8.031 -16.576  1.00  0.00    -0.246 F 
ENDBRANCH  37  38
ENDBRANCH  36  37
ENDBRANCH   9  36
TORSDOF 7
ENDMDL
MODEL 4
REMARK VINA RESULT:    -8.302      4.806     11.788
REMARK INTER + INTRA:         -13.535
REMARK INTER:                 -11.693
REMARK INTRA:                  -1.843
REMARK UNBOUND:                -2.078
REMARK SMILES CCc1c(F)ccc2cc(O)cc(-c3ncc4c(N5CCC[C@]6(CCO6)C5)nc(OC[C@@]56CCCN5C[C@H](F)C6)nc4c3F)c12
REMARK SMILES IDX 14 1 43 2 42 3 17 4 16 5 15 6 18 7 28 8 29 9 41 10 44 11
REMARK SMILES IDX 13 12 3 13 4 14 45 15 6 16 8 17 7 18 9 19 12 20 10 21 5 22
REMARK SMILES IDX 2 23 1 24 11 25 19 27 20 28 27 29 21 30 23 31 22 32 24 33
REMARK SMILES IDX 26 34 25 35 30 36 31 37 32 38 33 39 36 40 40 41 34 42 35 43
REMARK SMILES IDX 37 44 38 45 39 46
REMARK H PARENT 11 26
ROOT
ATOM      1  C   UNL     1      10.002   5.883 -19.619  1.00  0.00    +0.109 A 
ATOM      2  C   UNL     1       8.617   5.765 -19.734  1.00  0.00    +0.176 A 
ATOM      3  C   UNL     1       8.040   5.326 -20.920  1.00  0.00    +0.119 A 
ATOM      4  C   UNL     1       8.887   5.018 -21.984  1.00  0.00    +0.065 A 
ATOM      5  C   UNL     1      10.264   5.203 -21.804  1.00  0.00    +0.126 A 
ATOM      6  N   UNL     1      10.835   5.629 -20.655  1.00  0.00    -0.252 NA
ATOM      7  C   UNL     1       8.275   4.571 -23.168  1.00  0.00    +0.145 A 
ATOM      8  N   UNL     1       6.941   4.476 -23.276  1.00  0.00    -0.177 NA
ATOM      9  C   UNL     1       6.223   4.784 -22.194  1.00  0.00    +0.319 A 
ATOM     10  N   UNL     1       6.709   5.213 -21.026  1.00  0.00    -0.192 NA
ATOM     11  F   UNL     1       7.831   6.077 -18.687  1.00  0.00    -0.202 F 
ENDROOT
BRANCH   1  12
ATOM     12  C   UNL     1      10.639   6.392 -18.399  1.00  0.00    +0.015 A 
ATOM     13  C   UNL     1      11.388   8.737 -19.271  1.00  0.00    -0.004 A 
ATOM     14  C   UNL     1      12.096   9.919 -18.973  1.00  0.00    +0.127 A 
ATOM     15  C   UNL     1      11.297   7.679 -18.287  1.00  0.00    -0.002 A 
ATOM     16  C   UNL     1      12.723  10.119 -17.760  1.00  0.00    +0.040 A 
ATOM     17  C   UNL     1      11.938   7.941 -17.032  1.00  0.00    -0.014 A 
ATOM     18  C   UNL     1      12.637   9.133 -16.794  1.00  0.00    +0.012 A 
ATOM     19  C   UNL     1      11.894   7.018 -15.978  1.00  0.00    +0.055 A 
ATOM     20  C   UNL     1      10.604   5.500 -17.298  1.00  0.00    +0.057 A 
ATOM     21  C   UNL     1      11.223   5.820 -16.109  1.00  0.00    +0.116 A 
ATOM     22  F   UNL     1      12.165  10.906 -19.882  1.00  0.00    -0.207 F 
BRANCH  13  23
ATOM     23  C   UNL     1      10.706   8.736 -20.624  1.00  0.00    +0.036 C 
ATOM     24  C   UNL     1       9.282   9.268 -20.545  1.00  0.00    +0.009 C 
ENDBRANCH  13  23
BRANCH  21  25
ATOM     25  O   UNL     1      11.206   4.975 -15.040  1.00  0.00    -0.508 OA
ATOM     26  H   UNL     1      11.846   5.289 -14.380  1.00  0.00    +0.293 HD
ENDBRANCH  21  25
ENDBRANCH   1  12
BRANCH   7  27
ATOM     27  N   UNL     1       9.076   4.197 -24.278  1.00  0.00    -0.353 N 
ATOM     28  C   UNL     1       9.174   2.719 -24.360  1.00  0.00    +0.118 C 
ATOM     29  C   UNL     1       8.609   4.808 -25.539  1.00  0.00    +0.153 C 
ATOM     30  C   UNL     1       9.577   2.254 -25.768  1.00  0.00    +0.024 C 
ATOM     31  C   UNL     1       9.671   4.593 -26.640  1.00  0.00    +0.088 C 
ATOM     32  C   UNL     1      10.454   3.284 -26.470  1.00  0.00    +0.039 C 
ATOM     33  C   UNL     1      10.551   5.812 -26.985  1.00  0.00    +0.066 C 
ATOM     34  O   UNL     1       9.052   4.647 -27.961  1.00  0.00    -0.373 OA
ATOM     35  C   UNL     1       9.697   5.910 -28.243  1.00  0.00    +0.164 C 
ENDBRANCH   7  27
BRANCH   9  36
ATOM     36  O   UNL     1       4.861   4.751 -22.362  1.00  0.00    -0.461 OA
BRANCH  36  37
ATOM     37  C   UNL     1       4.470   3.946 -23.478  1.00  0.00    +0.255 C 
BRANCH  37  38
ATOM     38  C   UNL     1       3.346   2.966 -23.067  1.00  0.00    +0.058 C 
ATOM     39  C   UNL     1       1.967   3.670 -23.082  1.00  0.00    +0.027 C 
ATOM     40  N   UNL     1       3.243   1.829 -24.035  1.00  0.00    -0.291 NA
ATOM     41  C   UNL     1       3.660   2.315 -21.714  1.00  0.00    +0.065 C 
ATOM     42  C   UNL     1       1.090   2.833 -23.997  1.00  0.00    +0.018 C 
ATOM     43  C   UNL     1       2.089   2.134 -24.894  1.00  0.00    +0.085 C 
ATOM     44  C   UNL     1       3.026   0.596 -23.237  1.00  0.00    +0.123 C 
ATOM     45  C   UNL     1       2.939   0.992 -21.771  1.00  0.00    +0.182 C 
ATOM     46  F   UNL     1       1.636   1.174 -21.423  1.00  0.00    -0.246 F 
ENDBRANCH  37  38
ENDBRANCH  36  37
ENDBRANCH   9  36
TORSDOF 7
ENDMDL
MODEL 5
REMARK VINA RESULT:    -7.989      5.118     10.769
REMARK INTER + INTRA:         -13.103
REMARK INTER:                 -10.800
REMARK INTRA:                  -2.303
REMARK UNBOUND:                -2.078
REMARK SMILES CCc1c(F)ccc2cc(O)cc(-c3ncc4c(N5CCC[C@]6(CCO6)C5)nc(OC[C@@]56CCCN5C[C@H](F)C6)nc4c3F)c12
REMARK SMILES IDX 14 1 43 2 42 3 17 4 16 5 15 6 18 7 28 8 29 9 41 10 44 11
REMARK SMILES IDX 13 12 3 13 4 14 45 15 6 16 8 17 7 18 9 19 12 20 10 21 5 22
REMARK SMILES IDX 2 23 1 24 11 25 19 27 20 28 27 29 21 30 23 31 22 32 24 33
REMARK SMILES IDX 26 34 25 35 30 36 31 37 32 38 33 39 36 40 40 41 34 42 35 43
REMARK SMILES IDX 37 44 38 45 39 46
REMARK H PARENT 11 26
ROOT
ATOM      1  C   UNL     1       8.858   5.615 -20.282  1.00  0.00    +0.109 A 
ATOM      2  C   UNL     1       9.330   5.293 -21.554  1.00  0.00    +0.176 A 
ATOM      3  C   UNL     1       8.485   4.719 -22.498  1.00  0.00    +0.119 A 
ATOM      4  C   UNL     1       7.163   4.473 -22.128  1.00  0.00    +0.065 A 
ATOM      5  C   UNL     1       6.778   4.785 -20.818  1.00  0.00    +0.126 A 
ATOM      6  N   UNL     1       7.591   5.343 -19.893  1.00  0.00    -0.252 NA
ATOM      7  C   UNL     1       6.332   3.898 -23.105  1.00  0.00    +0.145 A 
ATOM      8  N   UNL     1       6.798   3.575 -24.322  1.00  0.00    -0.177 NA
ATOM      9  C   UNL     1       8.075   3.865 -24.577  1.00  0.00    +0.319 A 
ATOM     10  N   UNL     1       8.942   4.413 -23.720  1.00  0.00    -0.192 NA
ATOM     11  F   UNL     1      10.613   5.541 -21.874  1.00  0.00    -0.202 F 
ENDROOT
BRANCH   1  12
ATOM     12  C   UNL     1       9.736   6.174 -19.247  1.00  0.00    +0.015 A 
ATOM     13  C   UNL     1      10.020   8.587 -20.205  1.00  0.00    -0.004 A 
ATOM     14  C   UNL     1      10.669   9.830 -20.059  1.00  0.00    +0.127 A 
ATOM     15  C   UNL     1      10.280   7.517 -19.265  1.00  0.00    -0.002 A 
ATOM     16  C   UNL     1      11.563  10.080 -19.038  1.00  0.00    +0.040 A 
ATOM     17  C   UNL     1      11.193   7.831 -18.205  1.00  0.00    -0.014 A 
ATOM     18  C   UNL     1      11.817   9.083 -18.113  1.00  0.00    +0.012 A 
ATOM     19  C   UNL     1      11.503   6.901 -17.204  1.00  0.00    +0.055 A 
ATOM     20  C   UNL     1      10.064   5.275 -18.203  1.00  0.00    +0.057 A 
ATOM     21  C   UNL     1      10.934   5.644 -17.199  1.00  0.00    +0.116 A 
ATOM     22  F   UNL     1      10.414  10.826 -20.923  1.00  0.00    -0.207 F 
BRANCH  13  23
ATOM     23  C   UNL     1       9.019   8.530 -21.341  1.00  0.00    +0.036 C 
ATOM     24  C   UNL     1       7.620   8.921 -20.887  1.00  0.00    +0.009 C 
ENDBRANCH  13  23
BRANCH  21  25
ATOM     25  O   UNL     1      11.268   4.793 -16.188  1.00  0.00    -0.508 OA
ATOM     26  H   UNL     1      12.160   5.012 -15.873  1.00  0.00    +0.293 HD
ENDBRANCH  21  25
ENDBRANCH   1  12
BRANCH   7  27
ATOM     27  N   UNL     1       4.965   3.659 -22.815  1.00  0.00    -0.353 N 
ATOM     28  C   UNL     1       4.148   4.837 -23.199  1.00  0.00    +0.118 C 
ATOM     29  C   UNL     1       4.473   2.403 -23.419  1.00  0.00    +0.153 C 
ATOM     30  C   UNL     1       2.669   4.467 -23.384  1.00  0.00    +0.024 C 
ATOM     31  C   UNL     1       3.081   2.064 -22.841  1.00  0.00    +0.088 C 
ATOM     32  C   UNL     1       2.261   3.310 -22.479  1.00  0.00    +0.039 C 
ATOM     33  C   UNL     1       3.041   0.953 -21.771  1.00  0.00    +0.066 C 
ATOM     34  O   UNL     1       2.337   1.218 -23.769  1.00  0.00    -0.373 OA
ATOM     35  C   UNL     1       2.463   0.083 -22.881  1.00  0.00    +0.164 C 
ENDBRANCH   7  27
BRANCH   9  36
ATOM     36  O   UNL     1       8.540   3.453 -25.801  1.00  0.00    -0.461 OA
BRANCH  36  37
ATOM     37  C   UNL     1       9.913   3.800 -26.006  1.00  0.00    +0.255 C 
BRANCH  37  38
ATOM     38  C   UNL     1      10.038   4.858 -27.128  1.00  0.00    +0.058 C 
ATOM     39  C   UNL     1       8.722   4.962 -27.937  1.00  0.00    +0.027 C 
ATOM     40  N   UNL     1      10.285   6.220 -26.559  1.00  0.00    -0.291 NA
ATOM     41  C   UNL     1      11.254   4.567 -28.017  1.00  0.00    +0.065 C 
ATOM     42  C   UNL     1       8.319   6.425 -27.878  1.00  0.00    +0.018 C 
ATOM     43  C   UNL     1       8.994   6.922 -26.617  1.00  0.00    +0.085 C 
ATOM     44  C   UNL     1      11.306   6.872 -27.417  1.00  0.00    +0.123 C 
ATOM     45  C   UNL     1      11.643   5.920 -28.555  1.00  0.00    +0.182 C 
ATOM     46  F   UNL     1      10.874   6.212 -29.639  1.00  0.00    -0.246 F 
ENDBRANCH  37  38
ENDBRANCH  36  37
ENDBRANCH   9  36
TORSDOF 7
ENDMDL
MODEL 6
REMARK VINA RESULT:    -7.917      3.791      9.742
REMARK INTER + INTRA:         -13.003
REMARK INTER:                 -10.968
REMARK INTRA:                  -2.035
REMARK UNBOUND:                -2.078
REMARK SMILES CCc1c(F)ccc2cc(O)cc(-c3ncc4c(N5CCC[C@]6(CCO6)C5)nc(OC[C@@]56CCCN5C[C@H](F)C6)nc4c3F)c12
REMARK SMILES IDX 14 1 43 2 42 3 17 4 16 5 15 6 18 7 28 8 29 9 41 10 44 11
REMARK SMILES IDX 13 12 3 13 4 14 45 15 6 16 8 17 7 18 9 19 12 20 10 21 5 22
REMARK SMILES IDX 2 23 1 24 11 25 19 27 20 28 27 29 21 30 23 31 22 32 24 33
REMARK SMILES IDX 26 34 25 35 30 36 31 37 32 38 33 39 36 40 40 41 34 42 35 43
REMARK SMILES IDX 37 44 38 45 39 46
REMARK H PARENT 11 26
ROOT
ATOM      1  C   UNL     1       5.477   9.948 -21.214  1.00  0.00    +0.109 A 
ATOM      2  C   UNL     1       4.894   8.770 -21.682  1.00  0.00    +0.176 A 
ATOM      3  C   UNL     1       5.594   7.569 -21.637  1.00  0.00    +0.119 A 
ATOM      4  C   UNL     1       6.889   7.585 -21.120  1.00  0.00    +0.065 A 
ATOM      5  C   UNL     1       7.418   8.816 -20.710  1.00  0.00    +0.126 A 
ATOM      6  N   UNL     1       6.747   9.989 -20.749  1.00  0.00    -0.252 NA
ATOM      7  C   UNL     1       7.567   6.354 -21.083  1.00  0.00    +0.145 A 
ATOM      8  N   UNL     1       7.006   5.229 -21.551  1.00  0.00    -0.177 NA
ATOM      9  C   UNL     1       5.758   5.322 -22.013  1.00  0.00    +0.319 A 
ATOM     10  N   UNL     1       5.029   6.439 -22.087  1.00  0.00    -0.192 NA
ATOM     11  F   UNL     1       3.644   8.795 -22.178  1.00  0.00    -0.202 F 
ENDROOT
BRANCH   1  12
ATOM     12  C   UNL     1       4.786  11.240 -21.293  1.00  0.00    +0.015 A 
ATOM     13  C   UNL     1       5.522  11.955 -23.696  1.00  0.00    -0.004 A 
ATOM     14  C   UNL     1       5.495  12.976 -24.667  1.00  0.00    +0.127 A 
ATOM     15  C   UNL     1       4.861  12.147 -22.422  1.00  0.00    -0.002 A 
ATOM     16  C   UNL     1       4.856  14.181 -24.454  1.00  0.00    +0.040 A 
ATOM     17  C   UNL     1       4.186  13.401 -22.256  1.00  0.00    -0.014 A 
ATOM     18  C   UNL     1       4.200  14.386 -23.254  1.00  0.00    +0.012 A 
ATOM     19  C   UNL     1       3.474  13.702 -21.087  1.00  0.00    +0.055 A 
ATOM     20  C   UNL     1       4.037  11.581 -20.141  1.00  0.00    +0.057 A 
ATOM     21  C   UNL     1       3.392  12.797 -20.050  1.00  0.00    +0.116 A 
ATOM     22  F   UNL     1       6.095  12.789 -25.854  1.00  0.00    -0.207 F 
BRANCH  13  23
ATOM     23  C   UNL     1       6.208  10.679 -24.142  1.00  0.00    +0.036 C 
ATOM     24  C   UNL     1       7.722  10.773 -24.017  1.00  0.00    +0.009 C 
ENDBRANCH  13  23
BRANCH  21  25
ATOM     25  O   UNL     1       2.671  13.147 -18.949  1.00  0.00    -0.508 OA
ATOM     26  H   UNL     1       2.562  14.112 -18.937  1.00  0.00    +0.293 HD
ENDBRANCH  21  25
ENDBRANCH   1  12
BRANCH   7  27
ATOM     27  N   UNL     1       8.872   6.286 -20.530  1.00  0.00    -0.353 N 
ATOM     28  C   UNL     1       8.805   5.818 -19.123  1.00  0.00    +0.118 C 
ATOM     29  C   UNL     1       9.791   5.477 -21.357  1.00  0.00    +0.153 C 
ATOM     30  C   UNL     1      10.152   5.251 -18.648  1.00  0.00    +0.024 C 
ATOM     31  C   UNL     1      11.240   5.672 -20.858  1.00  0.00    +0.088 C 
ATOM     32  C   UNL     1      11.325   5.931 -19.347  1.00  0.00    +0.039 C 
ATOM     33  C   UNL     1      12.132   6.603 -21.706  1.00  0.00    +0.066 C 
ATOM     34  O   UNL     1      12.063   4.524 -21.224  1.00  0.00    -0.373 OA
ATOM     35  C   UNL     1      12.789   5.316 -22.192  1.00  0.00    +0.164 C 
ENDBRANCH   7  27
BRANCH   9  36
ATOM     36  O   UNL     1       5.243   4.170 -22.554  1.00  0.00    -0.461 OA
BRANCH  36  37
ATOM     37  C   UNL     1       3.998   4.394 -23.223  1.00  0.00    +0.255 C 
BRANCH  37  38
ATOM     38  C   UNL     1       3.088   3.149 -23.096  1.00  0.00    +0.058 C 
ATOM     39  C   UNL     1       1.594   3.548 -23.163  1.00  0.00    +0.027 C 
ATOM     40  N   UNL     1       3.316   2.199 -24.232  1.00  0.00    -0.291 NA
ATOM     41  C   UNL     1       3.430   2.351 -21.831  1.00  0.00    +0.065 C 
ATOM     42  C   UNL     1       0.999   2.720 -24.289  1.00  0.00    +0.018 C 
ATOM     43  C   UNL     1       2.196   2.405 -25.161  1.00  0.00    +0.085 C 
ATOM     44  C   UNL     1       3.315   0.829 -23.661  1.00  0.00    +0.123 C 
ATOM     45  C   UNL     1       3.026   0.939 -22.171  1.00  0.00    +0.182 C 
ATOM     46  F   UNL     1       1.691   0.787 -21.952  1.00  0.00    -0.246 F 
ENDBRANCH  37  38
ENDBRANCH  36  37
ENDBRANCH   9  36
TORSDOF 7
ENDMDL
MODEL 7
REMARK VINA RESULT:    -7.901      5.173     11.880
REMARK INTER + INTRA:         -12.980
REMARK INTER:                 -10.921
REMARK INTRA:                  -2.059
REMARK UNBOUND:                -2.078
REMARK SMILES CCc1c(F)ccc2cc(O)cc(-c3ncc4c(N5CCC[C@]6(CCO6)C5)nc(OC[C@@]56CCCN5C[C@H](F)C6)nc4c3F)c12
REMARK SMILES IDX 14 1 43 2 42 3 17 4 16 5 15 6 18 7 28 8 29 9 41 10 44 11
REMARK SMILES IDX 13 12 3 13 4 14 45 15 6 16 8 17 7 18 9 19 12 20 10 21 5 22
REMARK SMILES IDX 2 23 1 24 11 25 19 27 20 28 27 29 21 30 23 31 22 32 24 33
REMARK SMILES IDX 26 34 25 35 30 36 31 37 32 38 33 39 36 40 40 41 34 42 35 43
REMARK SMILES IDX 37 44 38 45 39 46
REMARK H PARENT 11 26
ROOT
ATOM      1  C   UNL     1      10.394   6.965 -20.423  1.00  0.00    +0.109 A 
ATOM      2  C   UNL     1       9.137   6.415 -20.180  1.00  0.00    +0.176 A 
ATOM      3  C   UNL     1       8.519   5.614 -21.135  1.00  0.00    +0.119 A 
ATOM      4  C   UNL     1       9.192   5.390 -22.335  1.00  0.00    +0.065 A 
ATOM      5  C   UNL     1      10.433   6.014 -22.519  1.00  0.00    +0.126 A 
ATOM      6  N   UNL     1      11.042   6.793 -21.598  1.00  0.00    -0.252 NA
ATOM      7  C   UNL     1       8.544   4.572 -23.278  1.00  0.00    +0.145 A 
ATOM      8  N   UNL     1       7.326   4.060 -23.043  1.00  0.00    -0.177 NA
ATOM      9  C   UNL     1       6.776   4.326 -21.858  1.00  0.00    +0.319 A 
ATOM     10  N   UNL     1       7.310   5.086 -20.897  1.00  0.00    -0.192 NA
ATOM     11  F   UNL     1       8.515   6.657 -19.012  1.00  0.00    -0.202 F 
ENDROOT
BRANCH   1  12
ATOM     12  C   UNL     1      11.051   7.855 -19.458  1.00  0.00    +0.015 A 
ATOM     13  C   UNL     1      11.719   6.088 -17.654  1.00  0.00    -0.004 A 
ATOM     14  C   UNL     1      12.280   5.881 -16.377  1.00  0.00    +0.127 A 
ATOM     15  C   UNL     1      11.607   7.429 -18.188  1.00  0.00    -0.002 A 
ATOM     16  C   UNL     1      12.736   6.921 -15.594  1.00  0.00    +0.040 A 
ATOM     17  C   UNL     1      12.119   8.475 -17.353  1.00  0.00    -0.014 A 
ATOM     18  C   UNL     1      12.659   8.212 -16.086  1.00  0.00    +0.012 A 
ATOM     19  C   UNL     1      12.110   9.814 -17.765  1.00  0.00    +0.055 A 
ATOM     20  C   UNL     1      11.083   9.219 -19.839  1.00  0.00    +0.057 A 
ATOM     21  C   UNL     1      11.609  10.177 -18.998  1.00  0.00    +0.116 A 
ATOM     22  F   UNL     1      12.397   4.634 -15.891  1.00  0.00    -0.207 F 
BRANCH  13  23
ATOM     23  C   UNL     1      11.345   4.818 -18.391  1.00  0.00    +0.036 C 
ATOM     24  C   UNL     1      12.501   4.282 -19.224  1.00  0.00    +0.009 C 
ENDBRANCH  13  23
BRANCH  21  25
ATOM     25  O   UNL     1      11.643  11.494 -19.342  1.00  0.00    -0.508 OA
ATOM     26  H   UNL     1      10.936  11.672 -19.984  1.00  0.00    +0.293 HD
ENDBRANCH  21  25
ENDBRANCH   1  12
BRANCH   7  27
ATOM     27  N   UNL     1       9.188   4.265 -24.504  1.00  0.00    -0.353 N 
ATOM     28  C   UNL     1       9.457   2.808 -24.587  1.00  0.00    +0.118 C 
ATOM     29  C   UNL     1       8.442   4.774 -25.673  1.00  0.00    +0.153 C 
ATOM     30  C   UNL     1       9.673   2.352 -26.038  1.00  0.00    +0.024 C 
ATOM     31  C   UNL     1       9.322   4.657 -26.937  1.00  0.00    +0.088 C 
ATOM     32  C   UNL     1      10.282   3.460 -26.890  1.00  0.00    +0.039 C 
ATOM     33  C   UNL     1       9.971   5.963 -27.439  1.00  0.00    +0.066 C 
ATOM     34  O   UNL     1       8.488   4.593 -28.133  1.00  0.00    -0.373 OA
ATOM     35  C   UNL     1       8.912   5.916 -28.534  1.00  0.00    +0.164 C 
ENDBRANCH   7  27
BRANCH   9  36
ATOM     36  O   UNL     1       5.500   3.852 -21.680  1.00  0.00    -0.461 OA
BRANCH  36  37
ATOM     37  C   UNL     1       4.816   3.656 -22.922  1.00  0.00    +0.255 C 
BRANCH  37  38
ATOM     38  C   UNL     1       3.545   2.801 -22.705  1.00  0.00    +0.058 C 
ATOM     39  C   UNL     1       2.267   3.636 -22.966  1.00  0.00    +0.027 C 
ATOM     40  N   UNL     1       3.496   1.656 -23.668  1.00  0.00    -0.291 NA
ATOM     41  C   UNL     1       3.553   2.156 -21.313  1.00  0.00    +0.065 C 
ATOM     42  C   UNL     1       1.481   2.866 -24.014  1.00  0.00    +0.018 C 
ATOM     43  C   UNL     1       2.545   2.050 -24.718  1.00  0.00    +0.085 C 
ATOM     44  C   UNL     1       3.022   0.469 -22.912  1.00  0.00    +0.123 C 
ATOM     45  C   UNL     1       2.723   0.909 -21.486  1.00  0.00    +0.182 C 
ATOM     46  F   UNL     1       1.405   1.226 -21.372  1.00  0.00    -0.246 F 
ENDBRANCH  37  38
ENDBRANCH  36  37
ENDBRANCH   9  36
TORSDOF 7
ENDMDL
MODEL 8
REMARK VINA RESULT:    -7.656      5.739     11.108
REMARK INTER + INTRA:         -12.643
REMARK INTER:                 -10.513
REMARK INTRA:                  -2.129
REMARK UNBOUND:                -2.078
REMARK SMILES CCc1c(F)ccc2cc(O)cc(-c3ncc4c(N5CCC[C@]6(CCO6)C5)nc(OC[C@@]56CCCN5C[C@H](F)C6)nc4c3F)c12
REMARK SMILES IDX 14 1 43 2 42 3 17 4 16 5 15 6 18 7 28 8 29 9 41 10 44 11
REMARK SMILES IDX 13 12 3 13 4 14 45 15 6 16 8 17 7 18 9 19 12 20 10 21 5 22
REMARK SMILES IDX 2 23 1 24 11 25 19 27 20 28 27 29 21 30 23 31 22 32 24 33
REMARK SMILES IDX 26 34 25 35 30 36 31 37 32 38 33 39 36 40 40 41 34 42 35 43
REMARK SMILES IDX 37 44 38 45 39 46
REMARK H PARENT 11 26
ROOT
ATOM      1  C   UNL     1       9.877   5.369 -24.697  1.00  0.00    +0.109 A 
ATOM      2  C   UNL     1       8.708   4.729 -24.286  1.00  0.00    +0.176 A 
ATOM      3  C   UNL     1       8.355   4.698 -22.941  1.00  0.00    +0.119 A 
ATOM      4  C   UNL     1       9.207   5.318 -22.027  1.00  0.00    +0.065 A 
ATOM      5  C   UNL     1      10.383   5.902 -22.515  1.00  0.00    +0.126 A 
ATOM      6  N   UNL     1      10.735   5.937 -23.820  1.00  0.00    -0.252 NA
ATOM      7  C   UNL     1       8.820   5.275 -20.676  1.00  0.00    +0.145 A 
ATOM      8  N   UNL     1       7.703   4.642 -20.285  1.00  0.00    -0.177 NA
ATOM      9  C   UNL     1       6.953   4.093 -21.242  1.00  0.00    +0.319 A 
ATOM     10  N   UNL     1       7.231   4.083 -22.549  1.00  0.00    -0.192 NA
ATOM     11  F   UNL     1       7.913   4.138 -25.196  1.00  0.00    -0.202 F 
ENDROOT
BRANCH   1  12
ATOM     12  C   UNL     1      10.304   5.376 -26.102  1.00  0.00    +0.015 A 
ATOM     13  C   UNL     1      11.680   3.156 -26.125  1.00  0.00    -0.004 A 
ATOM     14  C   UNL     1      12.520   2.314 -26.883  1.00  0.00    +0.127 A 
ATOM     15  C   UNL     1      11.159   4.375 -26.708  1.00  0.00    -0.002 A 
ATOM     16  C   UNL     1      12.877   2.605 -28.184  1.00  0.00    +0.040 A 
ATOM     17  C   UNL     1      11.533   4.622 -28.070  1.00  0.00    -0.014 A 
ATOM     18  C   UNL     1      12.379   3.752 -28.773  1.00  0.00    +0.012 A 
ATOM     19  C   UNL     1      11.067   5.744 -28.768  1.00  0.00    +0.055 A 
ATOM     20  C   UNL     1       9.841   6.484 -26.854  1.00  0.00    +0.057 A 
ATOM     21  C   UNL     1      10.222   6.655 -28.169  1.00  0.00    +0.116 A 
ATOM     22  F   UNL     1      12.989   1.176 -26.345  1.00  0.00    -0.207 F 
BRANCH  13  23
ATOM     23  C   UNL     1      11.341   2.631 -24.745  1.00  0.00    +0.036 C 
ATOM     24  C   UNL     1      10.247   1.574 -24.792  1.00  0.00    +0.009 C 
ENDBRANCH  13  23
BRANCH  21  25
ATOM     25  O   UNL     1       9.793   7.715 -28.908  1.00  0.00    -0.508 OA
ATOM     26  H   UNL     1       9.031   8.123 -28.464  1.00  0.00    +0.293 HD
ENDBRANCH  21  25
ENDBRANCH   1  12
BRANCH   7  27
ATOM     27  N   UNL     1       9.615   5.921 -19.695  1.00  0.00    -0.353 N 
ATOM     28  C   UNL     1       8.795   6.899 -18.937  1.00  0.00    +0.118 C 
ATOM     29  C   UNL     1      10.313   4.961 -18.815  1.00  0.00    +0.153 C 
ATOM     30  C   UNL     1       9.430   7.244 -17.582  1.00  0.00    +0.024 C 
ATOM     31  C   UNL     1      11.364   5.710 -17.966  1.00  0.00    +0.088 C 
ATOM     32  C   UNL     1      10.951   7.150 -17.634  1.00  0.00    +0.039 C 
ATOM     33  C   UNL     1      12.832   5.564 -18.416  1.00  0.00    +0.066 C 
ATOM     34  O   UNL     1      11.650   4.968 -16.741  1.00  0.00    -0.373 OA
ATOM     35  C   UNL     1      12.971   4.627 -17.222  1.00  0.00    +0.164 C 
ENDBRANCH   7  27
BRANCH   9  36
ATOM     36  O   UNL     1       5.860   3.389 -20.803  1.00  0.00    -0.461 OA
BRANCH  36  37
ATOM     37  C   UNL     1       5.604   2.229 -21.601  1.00  0.00    +0.255 C 
BRANCH  37  38
ATOM     38  C   UNL     1       4.112   2.176 -22.008  1.00  0.00    +0.058 C 
ATOM     39  C   UNL     1       3.698   3.467 -22.755  1.00  0.00    +0.027 C 
ATOM     40  N   UNL     1       3.853   1.046 -22.956  1.00  0.00    -0.291 NA
ATOM     41  C   UNL     1       3.225   1.889 -20.790  1.00  0.00    +0.065 C 
ATOM     42  C   UNL     1       3.117   3.005 -24.080  1.00  0.00    +0.018 C 
ATOM     43  C   UNL     1       3.764   1.653 -24.292  1.00  0.00    +0.085 C 
ATOM     44  C   UNL     1       2.571   0.419 -22.547  1.00  0.00    +0.123 C 
ATOM     45  C   UNL     1       2.012   1.211 -21.375  1.00  0.00    +0.182 C 
ATOM     46  F   UNL     1       1.144   2.155 -21.831  1.00  0.00    -0.246 F 
ENDBRANCH  37  38
ENDBRANCH  36  37
ENDBRANCH   9  36
TORSDOF 7
ENDMDL
MODEL 9
REMARK VINA RESULT:    -7.601      5.469     10.881
REMARK INTER + INTRA:         -12.568
REMARK INTER:                 -10.373
REMARK INTRA:                  -2.195
REMARK UNBOUND:                -2.078
REMARK SMILES CCc1c(F)ccc2cc(O)cc(-c3ncc4c(N5CCC[C@]6(CCO6)C5)nc(OC[C@@]56CCCN5C[C@H](F)C6)nc4c3F)c12
REMARK SMILES IDX 14 1 43 2 42 3 17 4 16 5 15 6 18 7 28 8 29 9 41 10 44 11
REMARK SMILES IDX 13 12 3 13 4 14 45 15 6 16 8 17 7 18 9 19 12 20 10 21 5 22
REMARK SMILES IDX 2 23 1 24 11 25 19 27 20 28 27 29 21 30 23 31 22 32 24 33
REMARK SMILES IDX 26 34 25 35 30 36 31 37 32 38 33 39 36 40 40 41 34 42 35 43
REMARK SMILES IDX 37 44 38 45 39 46
REMARK H PARENT 11 26
ROOT
ATOM      1  C   UNL     1      10.133   5.027 -24.713  1.00  0.00    +0.109 A 
ATOM      2  C   UNL     1       8.945   4.422 -24.304  1.00  0.00    +0.176 A 
ATOM      3  C   UNL     1       8.518   4.523 -22.985  1.00  0.00    +0.119 A 
ATOM      4  C   UNL     1       9.316   5.238 -22.092  1.00  0.00    +0.065 A 
ATOM      5  C   UNL     1      10.516   5.779 -22.571  1.00  0.00    +0.126 A 
ATOM      6  N   UNL     1      10.941   5.687 -23.851  1.00  0.00    -0.252 NA
ATOM      7  C   UNL     1       8.855   5.328 -20.767  1.00  0.00    +0.145 A 
ATOM      8  N   UNL     1       7.719   4.728 -20.377  1.00  0.00    -0.177 NA
ATOM      9  C   UNL     1       7.025   4.080 -21.314  1.00  0.00    +0.319 A 
ATOM     10  N   UNL     1       7.375   3.942 -22.596  1.00  0.00    -0.192 NA
ATOM     11  F   UNL     1       8.204   3.736 -25.193  1.00  0.00    -0.202 F 
ENDROOT
BRANCH   1  12
ATOM     12  C   UNL     1      10.638   4.896 -26.086  1.00  0.00    +0.015 A 
ATOM     13  C   UNL     1       9.290   6.832 -27.207  1.00  0.00    -0.004 A 
ATOM     14  C   UNL     1       8.976   7.485 -28.417  1.00  0.00    +0.127 A 
ATOM     15  C   UNL     1      10.202   5.708 -27.205  1.00  0.00    -0.002 A 
ATOM     16  C   UNL     1       9.509   7.092 -29.628  1.00  0.00    +0.040 A 
ATOM     17  C   UNL     1      10.753   5.353 -28.480  1.00  0.00    -0.014 A 
ATOM     18  C   UNL     1      10.398   6.033 -29.654  1.00  0.00    +0.012 A 
ATOM     19  C   UNL     1      11.679   4.310 -28.615  1.00  0.00    +0.055 A 
ATOM     20  C   UNL     1      11.591   3.865 -26.268  1.00  0.00    +0.057 A 
ATOM     21  C   UNL     1      12.100   3.585 -27.519  1.00  0.00    +0.116 A 
ATOM     22  F   UNL     1       8.143   8.538 -28.414  1.00  0.00    -0.207 F 
BRANCH  13  23
ATOM     23  C   UNL     1       8.666   7.456 -25.975  1.00  0.00    +0.036 C 
ATOM     24  C   UNL     1       9.481   8.633 -25.458  1.00  0.00    +0.009 C 
ENDBRANCH  13  23
BRANCH  21  25
ATOM     25  O   UNL     1      13.013   2.594 -27.718  1.00  0.00    -0.508 OA
ATOM     26  H   UNL     1      13.906   2.960 -27.605  1.00  0.00    +0.293 HD
ENDBRANCH  21  25
ENDBRANCH   1  12
BRANCH   7  27
ATOM     27  N   UNL     1       9.592   6.075 -19.814  1.00  0.00    -0.353 N 
ATOM     28  C   UNL     1       8.916   7.369 -19.547  1.00  0.00    +0.118 C 
ATOM     29  C   UNL     1       9.858   5.306 -18.580  1.00  0.00    +0.153 C 
ATOM     30  C   UNL     1       9.359   7.976 -18.207  1.00  0.00    +0.024 C 
ATOM     31  C   UNL     1      10.889   6.063 -17.713  1.00  0.00    +0.088 C 
ATOM     32  C   UNL     1      10.792   7.588 -17.861  1.00  0.00    +0.039 C 
ATOM     33  C   UNL     1      12.332   5.519 -17.740  1.00  0.00    +0.066 C 
ATOM     34  O   UNL     1      10.754   5.679 -16.311  1.00  0.00    -0.373 OA
ATOM     35  C   UNL     1      12.013   4.970 -16.354  1.00  0.00    +0.164 C 
ENDBRANCH   7  27
BRANCH   9  36
ATOM     36  O   UNL     1       5.910   3.415 -20.866  1.00  0.00    -0.461 OA
BRANCH  36  37
ATOM     37  C   UNL     1       5.631   2.243 -21.638  1.00  0.00    +0.255 C 
BRANCH  37  38
ATOM     38  C   UNL     1       4.132   2.195 -22.020  1.00  0.00    +0.058 C 
ATOM     39  C   UNL     1       3.703   3.502 -22.731  1.00  0.00    +0.027 C 
ATOM     40  N   UNL     1       3.858   1.086 -22.987  1.00  0.00    -0.291 NA
ATOM     41  C   UNL     1       3.268   1.881 -20.792  1.00  0.00    +0.065 C 
ATOM     42  C   UNL     1       3.099   3.068 -24.055  1.00  0.00    +0.018 C 
ATOM     43  C   UNL     1       3.744   1.721 -24.308  1.00  0.00    +0.085 C 
ATOM     44  C   UNL     1       2.584   0.448 -22.569  1.00  0.00    +0.123 C 
ATOM     45  C   UNL     1       2.046   1.213 -21.370  1.00  0.00    +0.182 C 
ATOM     46  F   UNL     1       1.168   2.165 -21.790  1.00  0.00    -0.246 F 
ENDBRANCH  37  38
ENDBRANCH  36  37
ENDBRANCH   9  36
TORSDOF 7
ENDMDL
