MODEL 1
REMARK VINA RESULT:   -12.045      0.000      0.000
REMARK INTER + INTRA:         -18.629
REMARK INTER:                 -16.974
REMARK INTRA:                  -1.654
REMARK UNBOUND:                -1.654
REMARK SMILES CCc1c(F)ccc2cc(O)cc(-c3ncc4c(N5CCC[C@@](C)(O)C5)nc(OC[C@@]56CCCN5C[C@H](F)C6)nc4c3F)c12
REMARK SMILES IDX 14 1 42 2 41 3 17 4 16 5 15 6 18 7 27 8 28 9 40 10 43 11
REMARK SMILES IDX 13 12 3 13 4 14 44 15 6 16 8 17 7 18 9 19 12 20 10 21 5 22
REMARK SMILES IDX 2 23 1 24 11 25 19 27 20 28 26 29 21 30 23 31 22 32 24 33
REMARK SMILES IDX 25 34 29 36 30 37 31 38 32 39 35 40 39 41 33 42 34 43 36 44
REMARK SMILES IDX 37 45 38 46
REMARK H PARENT 11 26 25 35
ROOT
ATOM      1  C   UNL     1      19.744  -3.226  24.485  1.00  0.00    +0.109 A 
ATOM      2  C   UNL     1      20.315  -4.322  23.844  1.00  0.00    +0.176 A 
ATOM      3  C   UNL     1      21.650  -4.296  23.458  1.00  0.00    +0.119 A 
ATOM      4  C   UNL     1      22.380  -3.131  23.690  1.00  0.00    +0.065 A 
ATOM      5  C   UNL     1      21.728  -2.066  24.326  1.00  0.00    +0.126 A 
ATOM      6  N   UNL     1      20.434  -2.084  24.716  1.00  0.00    -0.252 NA
ATOM      7  C   UNL     1      23.726  -3.142  23.287  1.00  0.00    +0.145 A 
ATOM      8  N   UNL     1      24.286  -4.241  22.755  1.00  0.00    -0.177 NA
ATOM      9  C   UNL     1      23.504  -5.308  22.581  1.00  0.00    +0.319 A 
ATOM     10  N   UNL     1      22.208  -5.376  22.894  1.00  0.00    -0.192 NA
ATOM     11  F   UNL     1      19.577  -5.423  23.612  1.00  0.00    -0.202 F 
ENDROOT
BRANCH   1  12
ATOM     12  C   UNL     1      18.332  -3.206  24.880  1.00  0.00    +0.015 A 
ATOM     13  C   UNL     1      17.236  -2.987  22.519  1.00  0.00    -0.004 A 
ATOM     14  C   UNL     1      16.029  -2.830  21.804  1.00  0.00    +0.127 A 
ATOM     15  C   UNL     1      17.215  -3.071  23.965  1.00  0.00    -0.002 A 
ATOM     16  C   UNL     1      14.802  -2.770  22.430  1.00  0.00    +0.040 A 
ATOM     17  C   UNL     1      15.916  -3.020  24.574  1.00  0.00    -0.014 A 
ATOM     18  C   UNL     1      14.749  -2.871  23.810  1.00  0.00    +0.012 A 
ATOM     19  C   UNL     1      15.747  -3.119  25.963  1.00  0.00    +0.055 A 
ATOM     20  C   UNL     1      18.109  -3.314  26.273  1.00  0.00    +0.057 A 
ATOM     21  C   UNL     1      16.836  -3.271  26.798  1.00  0.00    +0.116 A 
ATOM     22  F   UNL     1      16.053  -2.736  20.465  1.00  0.00    -0.207 F 
BRANCH  13  23
ATOM     23  C   UNL     1      18.473  -3.051  21.647  1.00  0.00    +0.036 C 
ATOM     24  C   UNL     1      19.087  -1.678  21.406  1.00  0.00    +0.009 C 
ENDBRANCH  13  23
BRANCH  21  25
ATOM     25  O   UNL     1      16.697  -3.374  28.150  1.00  0.00    -0.508 OA
ATOM     26  H   UNL     1      16.588  -4.309  28.386  1.00  0.00    +0.293 HD
ENDBRANCH  21  25
ENDBRANCH   1  12
BRANCH   7  27
ATOM     27  N   UNL     1      24.519  -1.985  23.442  1.00  0.00    -0.353 N 
ATOM     28  C   UNL     1      24.077  -0.872  22.587  1.00  0.00    +0.118 C 
ATOM     29  C   UNL     1      25.983  -2.230  23.401  1.00  0.00    +0.153 C 
ATOM     30  C   UNL     1      24.410  -1.109  21.112  1.00  0.00    +0.024 C 
ATOM     31  C   UNL     1      26.674  -1.734  22.099  1.00  0.00    +0.079 C 
ATOM     32  C   UNL     1      25.745  -1.826  20.884  1.00  0.00    +0.038 C 
ATOM     33  C   UNL     1      27.967  -2.519  21.857  1.00  0.00    +0.044 C 
BRANCH  31  34
ATOM     34  O   UNL     1      27.042  -0.351  22.263  1.00  0.00    -0.388 OA
ATOM     35  H   UNL     1      27.423  -0.042  21.423  1.00  0.00    +0.211 HD
ENDBRANCH  31  34
ENDBRANCH   7  27
BRANCH   9  36
ATOM     36  O   UNL     1      24.150  -6.407  22.068  1.00  0.00    -0.461 OA
BRANCH  36  37
ATOM     37  C   UNL     1      25.511  -6.206  21.681  1.00  0.00    +0.255 C 
BRANCH  37  38
ATOM     38  C   UNL     1      26.193  -7.541  21.285  1.00  0.00    +0.058 C 
ATOM     39  C   UNL     1      27.214  -7.388  20.150  1.00  0.00    +0.027 C 
ATOM     40  N   UNL     1      27.006  -8.084  22.406  1.00  0.00    -0.291 NA
ATOM     41  C   UNL     1      25.154  -8.635  21.026  1.00  0.00    +0.065 C 
ATOM     42  C   UNL     1      28.495  -6.975  20.860  1.00  0.00    +0.018 C 
ATOM     43  C   UNL     1      28.322  -7.432  22.307  1.00  0.00    +0.085 C 
ATOM     44  C   UNL     1      27.095  -9.542  22.178  1.00  0.00    +0.123 C 
ATOM     45  C   UNL     1      25.868  -9.933  21.358  1.00  0.00    +0.182 C 
ATOM     46  F   UNL     1      26.274 -10.521  20.199  1.00  0.00    -0.246 F 
ENDBRANCH  37  38
ENDBRANCH  36  37
ENDBRANCH   9  36
TORSDOF 8
ENDMDL
MODEL 2
REMARK VINA RESULT:   -11.565      1.193      1.684
REMARK INTER + INTRA:         -17.952
REMARK INTER:                 -16.126
REMARK INTRA:                  -1.826
REMARK UNBOUND:                -1.654
REMARK SMILES CCc1c(F)ccc2cc(O)cc(-c3ncc4c(N5CCC[C@@](C)(O)C5)nc(OC[C@@]56CCCN5C[C@H](F)C6)nc4c3F)c12
REMARK SMILES IDX 14 1 42 2 41 3 17 4 16 5 15 6 18 7 27 8 28 9 40 10 43 11
REMARK SMILES IDX 13 12 3 13 4 14 44 15 6 16 8 17 7 18 9 19 12 20 10 21 5 22
REMARK SMILES IDX 2 23 1 24 11 25 19 27 20 28 26 29 21 30 23 31 22 32 24 33
REMARK SMILES IDX 25 34 29 36 30 37 31 38 32 39 35 40 39 41 33 42 34 43 36 44
REMARK SMILES IDX 37 45 38 46
REMARK H PARENT 11 26 25 35
ROOT
ATOM      1  C   UNL     1      19.803  -3.167  24.381  1.00  0.00    +0.109 A 
ATOM      2  C   UNL     1      20.435  -4.252  23.780  1.00  0.00    +0.176 A 
ATOM      3  C   UNL     1      21.774  -4.175  23.416  1.00  0.00    +0.119 A 
ATOM      4  C   UNL     1      22.446  -2.973  23.630  1.00  0.00    +0.065 A 
ATOM      5  C   UNL     1      21.736  -1.922  24.226  1.00  0.00    +0.126 A 
ATOM      6  N   UNL     1      20.436  -1.989  24.594  1.00  0.00    -0.252 NA
ATOM      7  C   UNL     1      23.799  -2.933  23.249  1.00  0.00    +0.145 A 
ATOM      8  N   UNL     1      24.417  -4.019  22.757  1.00  0.00    -0.177 NA
ATOM      9  C   UNL     1      23.687  -5.124  22.598  1.00  0.00    +0.319 A 
ATOM     10  N   UNL     1      22.390  -5.243  22.891  1.00  0.00    -0.192 NA
ATOM     11  F   UNL     1      19.751  -5.391  23.565  1.00  0.00    -0.202 F 
ENDROOT
BRANCH   1  12
ATOM     12  C   UNL     1      18.384  -3.201  24.753  1.00  0.00    +0.015 A 
ATOM     13  C   UNL     1      17.323  -2.893  22.385  1.00  0.00    -0.004 A 
ATOM     14  C   UNL     1      16.124  -2.730  21.657  1.00  0.00    +0.127 A 
ATOM     15  C   UNL     1      17.280  -3.049  23.825  1.00  0.00    -0.002 A 
ATOM     16  C   UNL     1      14.886  -2.731  22.264  1.00  0.00    +0.040 A 
ATOM     17  C   UNL     1      15.971  -3.060  24.412  1.00  0.00    -0.014 A 
ATOM     18  C   UNL     1      14.813  -2.901  23.636  1.00  0.00    +0.012 A 
ATOM     19  C   UNL     1      15.781  -3.231  25.792  1.00  0.00    +0.055 A 
ATOM     20  C   UNL     1      18.142  -3.383  26.134  1.00  0.00    +0.057 A 
ATOM     21  C   UNL     1      16.859  -3.397  26.638  1.00  0.00    +0.116 A 
ATOM     22  F   UNL     1      16.168  -2.570  20.326  1.00  0.00    -0.207 F 
BRANCH  13  23
ATOM     23  C   UNL     1      18.576  -2.884  21.534  1.00  0.00    +0.036 C 
ATOM     24  C   UNL     1      19.160  -1.486  21.373  1.00  0.00    +0.009 C 
ENDBRANCH  13  23
BRANCH  21  25
ATOM     25  O   UNL     1      16.700  -3.570  27.980  1.00  0.00    -0.508 OA
ATOM     26  H   UNL     1      15.955  -3.026  28.283  1.00  0.00    +0.293 HD
ENDBRANCH  21  25
ENDBRANCH   1  12
BRANCH   7  27
ATOM     27  N   UNL     1      24.535  -1.738  23.387  1.00  0.00    -0.353 N 
ATOM     28  C   UNL     1      24.070  -0.673  22.484  1.00  0.00    +0.118 C 
ATOM     29  C   UNL     1      26.010  -1.918  23.394  1.00  0.00    +0.153 C 
ATOM     30  C   UNL     1      24.456  -0.943  21.027  1.00  0.00    +0.024 C 
ATOM     31  C   UNL     1      26.716  -1.435  22.096  1.00  0.00    +0.079 C 
ATOM     32  C   UNL     1      25.826  -1.606  20.860  1.00  0.00    +0.038 C 
ATOM     33  C   UNL     1      28.047  -2.168  21.916  1.00  0.00    +0.044 C 
BRANCH  31  34
ATOM     34  O   UNL     1      27.018  -0.031  22.224  1.00  0.00    -0.388 OA
ATOM     35  H   UNL     1      26.774   0.244  23.124  1.00  0.00    +0.211 HD
ENDBRANCH  31  34
ENDBRANCH   7  27
BRANCH   9  36
ATOM     36  O   UNL     1      24.391  -6.206  22.125  1.00  0.00    -0.461 OA
BRANCH  36  37
ATOM     37  C   UNL     1      25.479  -5.906  21.248  1.00  0.00    +0.255 C 
BRANCH  37  38
ATOM     38  C   UNL     1      26.824  -6.431  21.812  1.00  0.00    +0.058 C 
ATOM     39  C   UNL     1      26.822  -7.943  22.077  1.00  0.00    +0.027 C 
ATOM     40  N   UNL     1      27.927  -6.258  20.828  1.00  0.00    -0.291 NA
ATOM     41  C   UNL     1      27.280  -5.603  23.016  1.00  0.00    +0.065 C 
ATOM     42  C   UNL     1      27.179  -8.554  20.729  1.00  0.00    +0.018 C 
ATOM     43  C   UNL     1      27.880  -7.442  19.953  1.00  0.00    +0.085 C 
ATOM     44  C   UNL     1      29.175  -6.206  21.617  1.00  0.00    +0.123 C 
ATOM     45  C   UNL     1      28.794  -5.708  23.009  1.00  0.00    +0.182 C 
ATOM     46  F   UNL     1      29.176  -6.633  23.933  1.00  0.00    -0.246 F 
ENDBRANCH  37  38
ENDBRANCH  36  37
ENDBRANCH   9  36
TORSDOF 8
ENDMDL
MODEL 3
REMARK VINA RESULT:   -10.125      2.046      3.085
REMARK INTER + INTRA:         -15.923
REMARK INTER:                 -14.055
REMARK INTRA:                  -1.868
REMARK UNBOUND:                -1.654
REMARK SMILES CCc1c(F)ccc2cc(O)cc(-c3ncc4c(N5CCC[C@@](C)(O)C5)nc(OC[C@@]56CCCN5C[C@H](F)C6)nc4c3F)c12
REMARK SMILES IDX 14 1 42 2 41 3 17 4 16 5 15 6 18 7 27 8 28 9 40 10 43 11
REMARK SMILES IDX 13 12 3 13 4 14 44 15 6 16 8 17 7 18 9 19 12 20 10 21 5 22
REMARK SMILES IDX 2 23 1 24 11 25 19 27 20 28 26 29 21 30 23 31 22 32 24 33
REMARK SMILES IDX 25 34 29 36 30 37 31 38 32 39 35 40 39 41 33 42 34 43 36 44
REMARK SMILES IDX 37 45 38 46
REMARK H PARENT 11 26 25 35
ROOT
ATOM      1  C   UNL     1      19.964  -2.944  22.907  1.00  0.00    +0.109 A 
ATOM      2  C   UNL     1      20.643  -4.128  22.637  1.00  0.00    +0.176 A 
ATOM      3  C   UNL     1      22.032  -4.168  22.669  1.00  0.00    +0.119 A 
ATOM      4  C   UNL     1      22.718  -2.985  22.936  1.00  0.00    +0.065 A 
ATOM      5  C   UNL     1      21.963  -1.831  23.183  1.00  0.00    +0.126 A 
ATOM      6  N   UNL     1      20.612  -1.782  23.164  1.00  0.00    -0.252 NA
ATOM      7  C   UNL     1      24.121  -3.064  22.961  1.00  0.00    +0.145 A 
ATOM      8  N   UNL     1      24.757  -4.235  22.790  1.00  0.00    -0.177 NA
ATOM      9  C   UNL     1      24.008  -5.313  22.548  1.00  0.00    +0.319 A 
ATOM     10  N   UNL     1      22.675  -5.325  22.465  1.00  0.00    -0.192 NA
ATOM     11  F   UNL     1      19.951  -5.248  22.359  1.00  0.00    -0.202 F 
ENDROOT
BRANCH   1  12
ATOM     12  C   UNL     1      18.501  -2.855  22.854  1.00  0.00    +0.015 A 
ATOM     13  C   UNL     1      17.970  -3.112  25.399  1.00  0.00    -0.004 A 
ATOM     14  C   UNL     1      16.954  -3.225  26.373  1.00  0.00    +0.127 A 
ATOM     15  C   UNL     1      17.621  -2.960  24.001  1.00  0.00    -0.002 A 
ATOM     16  C   UNL     1      15.614  -3.177  26.050  1.00  0.00    +0.040 A 
ATOM     17  C   UNL     1      16.216  -2.900  23.713  1.00  0.00    -0.014 A 
ATOM     18  C   UNL     1      15.250  -3.009  24.725  1.00  0.00    +0.012 A 
ATOM     19  C   UNL     1      15.737  -2.726  22.407  1.00  0.00    +0.055 A 
ATOM     20  C   UNL     1      17.970  -2.669  21.556  1.00  0.00    +0.057 A 
ATOM     21  C   UNL     1      16.610  -2.606  21.344  1.00  0.00    +0.116 A 
ATOM     22  F   UNL     1      17.281  -3.382  27.665  1.00  0.00    -0.207 F 
BRANCH  13  23
ATOM     23  C   UNL     1      19.378  -3.168  25.957  1.00  0.00    +0.036 C 
ATOM     24  C   UNL     1      19.919  -1.789  26.308  1.00  0.00    +0.009 C 
ENDBRANCH  13  23
BRANCH  21  25
ATOM     25  O   UNL     1      16.168  -2.432  20.066  1.00  0.00    -0.508 OA
ATOM     26  H   UNL     1      16.116  -3.297  19.629  1.00  0.00    +0.293 HD
ENDBRANCH  21  25
ENDBRANCH   1  12
BRANCH   7  27
ATOM     27  N   UNL     1      24.890  -1.901  23.175  1.00  0.00    -0.353 N 
ATOM     28  C   UNL     1      24.666  -0.872  22.147  1.00  0.00    +0.118 C 
ATOM     29  C   UNL     1      26.324  -2.154  23.469  1.00  0.00    +0.153 C 
ATOM     30  C   UNL     1      25.299  -1.249  20.805  1.00  0.00    +0.024 C 
ATOM     31  C   UNL     1      27.287  -1.786  22.305  1.00  0.00    +0.079 C 
ATOM     32  C   UNL     1      26.634  -1.989  20.933  1.00  0.00    +0.038 C 
ATOM     33  C   UNL     1      28.582  -2.595  22.417  1.00  0.00    +0.044 C 
BRANCH  31  34
ATOM     34  O   UNL     1      27.645  -0.395  22.416  1.00  0.00    -0.388 OA
ATOM     35  H   UNL     1      27.501   0.019  21.548  1.00  0.00    +0.211 HD
ENDBRANCH  31  34
ENDBRANCH   7  27
BRANCH   9  36
ATOM     36  O   UNL     1      24.720  -6.481  22.420  1.00  0.00    -0.461 OA
BRANCH  36  37
ATOM     37  C   UNL     1      25.185  -6.787  21.104  1.00  0.00    +0.255 C 
BRANCH  37  38
ATOM     38  C   UNL     1      26.706  -6.521  20.962  1.00  0.00    +0.058 C 
ATOM     39  C   UNL     1      27.441  -6.476  22.309  1.00  0.00    +0.027 C 
ATOM     40  N   UNL     1      27.382  -7.631  20.239  1.00  0.00    -0.291 NA
ATOM     41  C   UNL     1      26.973  -5.298  20.082  1.00  0.00    +0.065 C 
ATOM     42  C   UNL     1      27.752  -7.936  22.607  1.00  0.00    +0.018 C 
ATOM     43  C   UNL     1      27.698  -8.647  21.257  1.00  0.00    +0.085 C 
ATOM     44  C   UNL     1      28.605  -7.048  19.646  1.00  0.00    +0.123 C 
ATOM     45  C   UNL     1      28.334  -5.557  19.461  1.00  0.00    +0.182 C 
ATOM     46  F   UNL     1      29.272  -4.844  20.143  1.00  0.00    -0.246 F 
ENDBRANCH  37  38
ENDBRANCH  36  37
ENDBRANCH   9  36
TORSDOF 8
ENDMDL
MODEL 4
REMARK VINA RESULT:    -9.126      1.861      2.822
REMARK INTER + INTRA:         -14.515
REMARK INTER:                 -13.153
REMARK INTRA:                  -1.362
REMARK UNBOUND:                -1.654
REMARK SMILES CCc1c(F)ccc2cc(O)cc(-c3ncc4c(N5CCC[C@@](C)(O)C5)nc(OC[C@@]56CCCN5C[C@H](F)C6)nc4c3F)c12
REMARK SMILES IDX 14 1 42 2 41 3 17 4 16 5 15 6 18 7 27 8 28 9 40 10 43 11
REMARK SMILES IDX 13 12 3 13 4 14 44 15 6 16 8 17 7 18 9 19 12 20 10 21 5 22
REMARK SMILES IDX 2 23 1 24 11 25 19 27 20 28 26 29 21 30 23 31 22 32 24 33
REMARK SMILES IDX 25 34 29 36 30 37 31 38 32 39 35 40 39 41 33 42 34 43 36 44
REMARK SMILES IDX 37 45 38 46
REMARK H PARENT 11 26 25 35
ROOT
ATOM      1  C   UNL     1      20.095  -2.974  22.942  1.00  0.00    +0.109 A 
ATOM      2  C   UNL     1      20.732  -4.177  22.655  1.00  0.00    +0.176 A 
ATOM      3  C   UNL     1      22.119  -4.267  22.691  1.00  0.00    +0.119 A 
ATOM      4  C   UNL     1      22.846  -3.113  22.977  1.00  0.00    +0.065 A 
ATOM      5  C   UNL     1      22.131  -1.936  23.239  1.00  0.00    +0.126 A 
ATOM      6  N   UNL     1      20.782  -1.840  23.217  1.00  0.00    -0.252 NA
ATOM      7  C   UNL     1      24.245  -3.242  23.005  1.00  0.00    +0.145 A 
ATOM      8  N   UNL     1      24.840  -4.432  22.818  1.00  0.00    -0.177 NA
ATOM      9  C   UNL     1      24.054  -5.479  22.558  1.00  0.00    +0.319 A 
ATOM     10  N   UNL     1      22.722  -5.443  22.471  1.00  0.00    -0.192 NA
ATOM     11  F   UNL     1      20.003  -5.268  22.359  1.00  0.00    -0.202 F 
ENDROOT
BRANCH   1  12
ATOM     12  C   UNL     1      18.636  -2.833  22.885  1.00  0.00    +0.015 A 
ATOM     13  C   UNL     1      18.088  -3.116  25.424  1.00  0.00    -0.004 A 
ATOM     14  C   UNL     1      17.065  -3.209  26.392  1.00  0.00    +0.127 A 
ATOM     15  C   UNL     1      17.749  -2.927  24.028  1.00  0.00    -0.002 A 
ATOM     16  C   UNL     1      15.728  -3.109  26.067  1.00  0.00    +0.040 A 
ATOM     17  C   UNL     1      16.348  -2.812  23.737  1.00  0.00    -0.014 A 
ATOM     18  C   UNL     1      15.375  -2.906  24.744  1.00  0.00    +0.012 A 
ATOM     19  C   UNL     1      15.880  -2.600  22.432  1.00  0.00    +0.055 A 
ATOM     20  C   UNL     1      18.116  -2.606  21.590  1.00  0.00    +0.057 A 
ATOM     21  C   UNL     1      16.760  -2.491  21.374  1.00  0.00    +0.116 A 
ATOM     22  F   UNL     1      17.382  -3.400  27.682  1.00  0.00    -0.207 F 
BRANCH  13  23
ATOM     23  C   UNL     1      19.490  -3.231  25.985  1.00  0.00    +0.036 C 
ATOM     24  C   UNL     1      20.069  -1.881  26.386  1.00  0.00    +0.009 C 
ENDBRANCH  13  23
BRANCH  21  25
ATOM     25  O   UNL     1      16.330  -2.279  20.099  1.00  0.00    -0.508 OA
ATOM     26  H   UNL     1      16.979  -2.650  19.480  1.00  0.00    +0.293 HD
ENDBRANCH  21  25
ENDBRANCH   1  12
BRANCH   7  27
ATOM     27  N   UNL     1      25.054  -2.110  23.238  1.00  0.00    -0.353 N 
ATOM     28  C   UNL     1      24.955  -1.107  22.165  1.00  0.00    +0.118 C 
ATOM     29  C   UNL     1      26.449  -2.420  23.644  1.00  0.00    +0.153 C 
ATOM     30  C   UNL     1      25.662  -1.560  20.886  1.00  0.00    +0.024 C 
ATOM     31  C   UNL     1      27.509  -2.139  22.542  1.00  0.00    +0.079 C 
ATOM     32  C   UNL     1      26.946  -2.357  21.134  1.00  0.00    +0.038 C 
ATOM     33  C   UNL     1      28.751  -3.004  22.773  1.00  0.00    +0.044 C 
BRANCH  31  34
ATOM     34  O   UNL     1      27.927  -0.763  22.636  1.00  0.00    -0.388 OA
ATOM     35  H   UNL     1      28.894  -0.739  22.541  1.00  0.00    +0.211 HD
ENDBRANCH  31  34
ENDBRANCH   7  27
BRANCH   9  36
ATOM     36  O   UNL     1      24.725  -6.670  22.415  1.00  0.00    -0.461 OA
BRANCH  36  37
ATOM     37  C   UNL     1      24.158  -7.597  21.487  1.00  0.00    +0.255 C 
BRANCH  37  38
ATOM     38  C   UNL     1      24.849  -8.982  21.575  1.00  0.00    +0.058 C 
ATOM     39  C   UNL     1      25.540  -9.400  20.270  1.00  0.00    +0.027 C 
ATOM     40  N   UNL     1      25.962  -8.968  22.563  1.00  0.00    -0.291 NA
ATOM     41  C   UNL     1      23.891 -10.043  22.123  1.00  0.00    +0.065 C 
ATOM     42  C   UNL     1      26.909  -8.741  20.351  1.00  0.00    +0.018 C 
ATOM     43  C   UNL     1      27.143  -8.473  21.836  1.00  0.00    +0.085 C 
ATOM     44  C   UNL     1      26.134 -10.369  23.004  1.00  0.00    +0.123 C 
ATOM     45  C   UNL     1      24.788 -11.060  22.806  1.00  0.00    +0.182 C 
ATOM     46  F   UNL     1      24.953 -12.128  21.977  1.00  0.00    -0.246 F 
ENDBRANCH  37  38
ENDBRANCH  36  37
ENDBRANCH   9  36
TORSDOF 8
ENDMDL
