MODEL 1
REMARK VINA RESULT:   -12.640      0.000      0.000
REMARK INTER + INTRA:         -17.883
REMARK INTER:                 -16.704
REMARK INTRA:                  -1.180
REMARK UNBOUND:                -1.180
REMARK SMILES C#Cc1c(F)ccc2cc(O)cc(-c3ncc4c(N5C[C@H]6CC[C@@H](C5)N6)nc(OC[C@@]56CCCN5C[C@H](F)C6)nc4c3F)c12
REMARK SMILES IDX 14 1 42 2 41 3 17 4 16 5 15 6 18 7 27 8 28 9 40 10 43 11
REMARK SMILES IDX 13 12 2 13 3 14 4 15 44 16 6 17 8 18 7 19 9 20 12 21 10 22
REMARK SMILES IDX 1 23 5 24 11 25 19 27 20 28 25 29 21 30 24 31 22 32 26 33
REMARK SMILES IDX 23 34 29 36 30 37 31 38 32 39 35 40 39 41 33 42 34 43 36 44
REMARK SMILES IDX 37 45 38 46
REMARK H PARENT 11 26 26 35
ROOT
ATOM      1  C   UNL     1      19.628  -3.051  24.351  1.00  0.00    +0.109 A 
ATOM      2  C   UNL     1      20.301  -4.155  23.832  1.00  0.00    +0.176 A 
ATOM      3  C   UNL     1      21.652  -4.074  23.513  1.00  0.00    +0.119 A 
ATOM      4  C   UNL     1      22.314  -2.869  23.758  1.00  0.00    +0.065 A 
ATOM      5  C   UNL     1      21.563  -1.807  24.284  1.00  0.00    +0.126 A 
ATOM      6  N   UNL     1      20.252  -1.877  24.605  1.00  0.00    -0.252 NA
ATOM      7  C   UNL     1      23.680  -2.818  23.429  1.00  0.00    +0.145 A 
ATOM      8  N   UNL     1      24.292  -3.866  22.858  1.00  0.00    -0.177 NA
ATOM      9  C   UNL     1      23.569  -4.968  22.652  1.00  0.00    +0.319 A 
ATOM     10  N   UNL     1      22.284  -5.129  22.980  1.00  0.00    -0.192 NA
ATOM     11  F   UNL     1      19.639  -5.309  23.634  1.00  0.00    -0.202 F 
ENDROOT
BRANCH   1  12
ATOM     12  C   UNL     1      18.210  -3.107  24.727  1.00  0.00    +0.016 A 
ATOM     13  C   UNL     1      18.457  -2.198  21.758  1.00  0.00    -0.067 C 
ATOM     14  C   UNL     1      17.214  -2.481  22.423  1.00  0.00    +0.068 A 
ATOM     15  C   UNL     1      16.058  -2.318  21.643  1.00  0.00    +0.139 A 
ATOM     16  C   UNL     1      17.122  -2.874  23.804  1.00  0.00    +0.010 A 
ATOM     17  C   UNL     1      14.795  -2.516  22.169  1.00  0.00    +0.041 A 
ATOM     18  C   UNL     1      15.799  -3.045  24.319  1.00  0.00    -0.013 A 
ATOM     19  C   UNL     1      14.669  -2.871  23.505  1.00  0.00    +0.012 A 
ATOM     20  C   UNL     1      15.584  -3.387  25.660  1.00  0.00    +0.055 A 
ATOM     21  C   UNL     1      17.945  -3.430  26.078  1.00  0.00    +0.057 A 
ATOM     22  C   UNL     1      16.645  -3.564  26.528  1.00  0.00    +0.116 A 
ATOM     23  C   UNL     1      19.462  -1.938  21.154  1.00  0.00    +0.010 C 
ATOM     24  F   UNL     1      16.153  -1.955  20.353  1.00  0.00    -0.206 F 
BRANCH  22  25
ATOM     25  O   UNL     1      16.365  -3.880  27.823  1.00  0.00    -0.508 OA
ATOM     26  H   UNL     1      16.809  -3.241  28.406  1.00  0.00    +0.293 HD
ENDBRANCH  22  25
ENDBRANCH   1  12
BRANCH   7  27
ATOM     27  N   UNL     1      24.433  -1.665  23.687  1.00  0.00    -0.353 N 
ATOM     28  C   UNL     1      25.840  -1.717  23.214  1.00  0.00    +0.137 C 
ATOM     29  C   UNL     1      23.742  -0.365  23.485  1.00  0.00    +0.137 C 
ATOM     30  C   UNL     1      26.120  -0.808  21.985  1.00  0.00    +0.073 C 
ATOM     31  C   UNL     1      24.233   0.442  22.251  1.00  0.00    +0.073 C 
ATOM     32  C   UNL     1      25.249  -1.171  20.777  1.00  0.00    +0.022 C 
ATOM     33  N   UNL     1      25.710   0.584  22.281  1.00  0.00    -0.308 NA
ATOM     34  C   UNL     1      24.018  -0.277  20.921  1.00  0.00    +0.022 C 
ATOM     35  H   UNL     1      25.995   1.183  21.506  1.00  0.00    +0.123 HD
ENDBRANCH   7  27
BRANCH   9  36
ATOM     36  O   UNL     1      24.272  -6.016  22.104  1.00  0.00    -0.461 OA
BRANCH  36  37
ATOM     37  C   UNL     1      25.663  -5.728  21.923  1.00  0.00    +0.255 C 
BRANCH  37  38
ATOM     38  C   UNL     1      26.344  -6.860  21.114  1.00  0.00    +0.058 C 
ATOM     39  C   UNL     1      27.375  -6.264  20.150  1.00  0.00    +0.027 C 
ATOM     40  N   UNL     1      27.146  -7.762  21.997  1.00  0.00    -0.291 NA
ATOM     41  C   UNL     1      25.307  -7.753  20.390  1.00  0.00    +0.065 C 
ATOM     42  C   UNL     1      28.363  -7.392  19.943  1.00  0.00    +0.018 C 
ATOM     43  C   UNL     1      28.415  -8.063  21.304  1.00  0.00    +0.085 C 
ATOM     44  C   UNL     1      26.321  -8.968  22.193  1.00  0.00    +0.123 C 
ATOM     45  C   UNL     1      25.542  -9.158  20.906  1.00  0.00    +0.182 C 
ATOM     46  F   UNL     1      26.308  -9.837  20.007  1.00  0.00    -0.246 F 
ENDBRANCH  37  38
ENDBRANCH  36  37
ENDBRANCH   9  36
TORSDOF 6
ENDMDL
MODEL 2
REMARK VINA RESULT:   -10.913      2.026      3.104
REMARK INTER + INTRA:         -15.602
REMARK INTER:                 -14.836
REMARK INTRA:                  -0.766
REMARK UNBOUND:                -1.180
REMARK SMILES C#Cc1c(F)ccc2cc(O)cc(-c3ncc4c(N5C[C@H]6CC[C@@H](C5)N6)nc(OC[C@@]56CCCN5C[C@H](F)C6)nc4c3F)c12
REMARK SMILES IDX 14 1 42 2 41 3 17 4 16 5 15 6 18 7 27 8 28 9 40 10 43 11
REMARK SMILES IDX 13 12 2 13 3 14 4 15 44 16 6 17 8 18 7 19 9 20 12 21 10 22
REMARK SMILES IDX 1 23 5 24 11 25 19 27 20 28 25 29 21 30 24 31 22 32 26 33
REMARK SMILES IDX 23 34 29 36 30 37 31 38 32 39 35 40 39 41 33 42 34 43 36 44
REMARK SMILES IDX 37 45 38 46
REMARK H PARENT 11 26 26 35
ROOT
ATOM      1  C   UNL     1      19.909  -2.855  22.857  1.00  0.00    +0.109 A 
ATOM      2  C   UNL     1      20.638  -4.031  22.694  1.00  0.00    +0.176 A 
ATOM      3  C   UNL     1      22.026  -4.018  22.772  1.00  0.00    +0.119 A 
ATOM      4  C   UNL     1      22.659  -2.804  23.046  1.00  0.00    +0.065 A 
ATOM      5  C   UNL     1      21.851  -1.667  23.198  1.00  0.00    +0.126 A 
ATOM      6  N   UNL     1      20.501  -1.669  23.134  1.00  0.00    -0.252 NA
ATOM      7  C   UNL     1      24.063  -2.823  23.121  1.00  0.00    +0.145 A 
ATOM      8  N   UNL     1      24.751  -3.950  22.885  1.00  0.00    -0.177 NA
ATOM      9  C   UNL     1      24.055  -5.055  22.617  1.00  0.00    +0.319 A 
ATOM     10  N   UNL     1      22.723  -5.147  22.578  1.00  0.00    -0.192 NA
ATOM     11  F   UNL     1      19.995  -5.188  22.459  1.00  0.00    -0.202 F 
ENDROOT
BRANCH   1  12
ATOM     12  C   UNL     1      18.441  -2.833  22.812  1.00  0.00    +0.016 A 
ATOM     13  C   UNL     1      19.381  -3.447  25.718  1.00  0.00    -0.067 C 
ATOM     14  C   UNL     1      18.012  -3.228  25.332  1.00  0.00    +0.068 A 
ATOM     15  C   UNL     1      17.069  -3.311  26.369  1.00  0.00    +0.139 A 
ATOM     16  C   UNL     1      17.599  -2.971  23.979  1.00  0.00    +0.010 A 
ATOM     17  C   UNL     1      15.716  -3.162  26.131  1.00  0.00    +0.041 A 
ATOM     18  C   UNL     1      16.190  -2.848  23.767  1.00  0.00    -0.013 A 
ATOM     19  C   UNL     1      15.280  -2.939  24.833  1.00  0.00    +0.012 A 
ATOM     20  C   UNL     1      15.667  -2.639  22.485  1.00  0.00    +0.055 A 
ATOM     21  C   UNL     1      17.868  -2.642  21.535  1.00  0.00    +0.057 A 
ATOM     22  C   UNL     1      16.498  -2.549  21.384  1.00  0.00    +0.116 A 
ATOM     23  C   UNL     1      20.502  -3.649  26.097  1.00  0.00    +0.010 C 
ATOM     24  F   UNL     1      17.464  -3.546  27.632  1.00  0.00    -0.206 F 
BRANCH  22  25
ATOM     25  O   UNL     1      15.922  -2.361  20.164  1.00  0.00    -0.508 OA
ATOM     26  H   UNL     1      15.762  -1.411  20.035  1.00  0.00    +0.293 HD
ENDBRANCH  22  25
ENDBRANCH   1  12
BRANCH   7  27
ATOM     27  N   UNL     1      24.776  -1.660  23.441  1.00  0.00    -0.353 N 
ATOM     28  C   UNL     1      26.158  -1.603  22.898  1.00  0.00    +0.137 C 
ATOM     29  C   UNL     1      24.017  -0.384  23.384  1.00  0.00    +0.137 C 
ATOM     30  C   UNL     1      26.332  -0.583  21.740  1.00  0.00    +0.073 C 
ATOM     31  C   UNL     1      24.408   0.547  22.202  1.00  0.00    +0.073 C 
ATOM     32  C   UNL     1      25.418  -0.886  20.549  1.00  0.00    +0.022 C 
ATOM     33  N   UNL     1      25.876   0.758  22.174  1.00  0.00    -0.308 NA
ATOM     34  C   UNL     1      24.157  -0.069  20.827  1.00  0.00    +0.022 C 
ATOM     35  H   UNL     1      26.094   1.433  21.440  1.00  0.00    +0.123 HD
ENDBRANCH   7  27
BRANCH   9  36
ATOM     36  O   UNL     1      24.825  -6.181  22.429  1.00  0.00    -0.461 OA
BRANCH  36  37
ATOM     37  C   UNL     1      25.262  -6.344  21.076  1.00  0.00    +0.255 C 
BRANCH  37  38
ATOM     38  C   UNL     1      26.809  -6.296  21.002  1.00  0.00    +0.058 C 
ATOM     39  C   UNL     1      27.349  -7.637  20.494  1.00  0.00    +0.027 C 
ATOM     40  N   UNL     1      27.280  -5.303  19.987  1.00  0.00    -0.291 NA
ATOM     41  C   UNL     1      27.435  -5.881  22.355  1.00  0.00    +0.065 C 
ATOM     42  C   UNL     1      28.676  -7.271  19.866  1.00  0.00    +0.018 C 
ATOM     43  C   UNL     1      28.406  -5.910  19.249  1.00  0.00    +0.085 C 
ATOM     44  C   UNL     1      27.696  -4.114  20.754  1.00  0.00    +0.123 C 
ATOM     45  C   UNL     1      28.244  -4.632  22.069  1.00  0.00    +0.182 C 
ATOM     46  F   UNL     1      29.552  -4.979  21.911  1.00  0.00    -0.246 F 
ENDBRANCH  37  38
ENDBRANCH  36  37
ENDBRANCH   9  36
TORSDOF 6
ENDMDL
MODEL 3
REMARK VINA RESULT:   -10.313      2.613      9.901
REMARK INTER + INTRA:         -14.808
REMARK INTER:                 -13.355
REMARK INTRA:                  -1.453
REMARK UNBOUND:                -1.180
REMARK SMILES C#Cc1c(F)ccc2cc(O)cc(-c3ncc4c(N5C[C@H]6CC[C@@H](C5)N6)nc(OC[C@@]56CCCN5C[C@H](F)C6)nc4c3F)c12
REMARK SMILES IDX 14 1 42 2 41 3 17 4 16 5 15 6 18 7 27 8 28 9 40 10 43 11
REMARK SMILES IDX 13 12 2 13 3 14 4 15 44 16 6 17 8 18 7 19 9 20 12 21 10 22
REMARK SMILES IDX 1 23 5 24 11 25 19 27 20 28 25 29 21 30 24 31 22 32 26 33
REMARK SMILES IDX 23 34 29 36 30 37 31 38 32 39 35 40 39 41 33 42 34 43 36 44
REMARK SMILES IDX 37 45 38 46
REMARK H PARENT 11 26 26 35
ROOT
ATOM      1  C   UNL     1      27.456  -5.159  21.586  1.00  0.00    +0.109 A 
ATOM      2  C   UNL     1      26.190  -5.612  21.954  1.00  0.00    +0.176 A 
ATOM      3  C   UNL     1      25.206  -4.714  22.351  1.00  0.00    +0.119 A 
ATOM      4  C   UNL     1      25.514  -3.352  22.338  1.00  0.00    +0.065 A 
ATOM      5  C   UNL     1      26.810  -2.980  21.953  1.00  0.00    +0.126 A 
ATOM      6  N   UNL     1      27.773  -3.843  21.557  1.00  0.00    -0.252 NA
ATOM      7  C   UNL     1      24.497  -2.468  22.741  1.00  0.00    +0.145 A 
ATOM      8  N   UNL     1      23.311  -2.929  23.166  1.00  0.00    -0.177 NA
ATOM      9  C   UNL     1      23.119  -4.248  23.154  1.00  0.00    +0.319 A 
ATOM     10  N   UNL     1      24.002  -5.160  22.738  1.00  0.00    -0.192 NA
ATOM     11  F   UNL     1      25.919  -6.929  21.928  1.00  0.00    -0.202 F 
ENDROOT
BRANCH   1  12
ATOM     12  C   UNL     1      28.512  -6.073  21.133  1.00  0.00    +0.016 A 
ATOM     13  C   UNL     1      28.922  -5.433  24.154  1.00  0.00    -0.067 C 
ATOM     14  C   UNL     1      29.697  -6.390  23.410  1.00  0.00    +0.068 A 
ATOM     15  C   UNL     1      30.699  -7.054  24.136  1.00  0.00    +0.139 A 
ATOM     16  C   UNL     1      29.507  -6.650  22.009  1.00  0.00    +0.010 A 
ATOM     17  C   UNL     1      31.544  -7.968  23.535  1.00  0.00    +0.041 A 
ATOM     18  C   UNL     1      30.415  -7.583  21.416  1.00  0.00    -0.013 A 
ATOM     19  C   UNL     1      31.404  -8.224  22.178  1.00  0.00    +0.012 A 
ATOM     20  C   UNL     1      30.353  -7.884  20.050  1.00  0.00    +0.055 A 
ATOM     21  C   UNL     1      28.500  -6.391  19.756  1.00  0.00    +0.057 A 
ATOM     22  C   UNL     1      29.414  -7.285  19.232  1.00  0.00    +0.116 A 
ATOM     23  C   UNL     1      28.317  -4.640  24.823  1.00  0.00    +0.010 C 
ATOM     24  F   UNL     1      30.867  -6.809  25.446  1.00  0.00    -0.206 F 
BRANCH  22  25
ATOM     25  O   UNL     1      29.419  -7.611  17.909  1.00  0.00    -0.508 OA
ATOM     26  H   UNL     1      29.025  -8.493  17.801  1.00  0.00    +0.293 HD
ENDBRANCH  22  25
ENDBRANCH   1  12
BRANCH   7  27
ATOM     27  N   UNL     1      24.704  -1.083  22.711  1.00  0.00    -0.353 N 
ATOM     28  C   UNL     1      24.987  -0.520  21.366  1.00  0.00    +0.137 C 
ATOM     29  C   UNL     1      23.809  -0.263  23.568  1.00  0.00    +0.137 C 
ATOM     30  C   UNL     1      23.818   0.321  20.782  1.00  0.00    +0.073 C 
ATOM     31  C   UNL     1      22.766   0.585  22.786  1.00  0.00    +0.073 C 
ATOM     32  C   UNL     1      22.525  -0.489  20.643  1.00  0.00    +0.022 C 
ATOM     33  N   UNL     1      23.438   1.389  21.735  1.00  0.00    -0.308 NA
ATOM     34  C   UNL     1      21.790  -0.250  21.961  1.00  0.00    +0.022 C 
ATOM     35  H   UNL     1      22.744   1.992  21.293  1.00  0.00    +0.123 HD
ENDBRANCH   7  27
BRANCH   9  36
ATOM     36  O   UNL     1      21.866  -4.645  23.561  1.00  0.00    -0.461 OA
BRANCH  36  37
ATOM     37  C   UNL     1      21.372  -3.895  24.676  1.00  0.00    +0.255 C 
BRANCH  37  38
ATOM     38  C   UNL     1      19.867  -3.580  24.486  1.00  0.00    +0.058 C 
ATOM     39  C   UNL     1      19.188  -3.439  25.852  1.00  0.00    +0.027 C 
ATOM     40  N   UNL     1      19.661  -2.249  23.835  1.00  0.00    -0.291 NA
ATOM     41  C   UNL     1      19.170  -4.629  23.586  1.00  0.00    +0.065 C 
ATOM     42  C   UNL     1      18.005  -2.538  25.570  1.00  0.00    +0.018 C 
ATOM     43  C   UNL     1      18.542  -1.576  24.524  1.00  0.00    +0.085 C 
ATOM     44  C   UNL     1      19.350  -2.539  22.423  1.00  0.00    +0.123 C 
ATOM     45  C   UNL     1      18.594  -3.852  22.419  1.00  0.00    +0.182 C 
ATOM     46  F   UNL     1      17.273  -3.617  22.654  1.00  0.00    -0.246 F 
ENDBRANCH  37  38
ENDBRANCH  36  37
ENDBRANCH   9  36
TORSDOF 6
ENDMDL
MODEL 4
REMARK VINA RESULT:    -9.908      4.082      7.001
REMARK INTER + INTRA:         -14.273
REMARK INTER:                 -13.263
REMARK INTRA:                  -1.010
REMARK UNBOUND:                -1.180
REMARK SMILES C#Cc1c(F)ccc2cc(O)cc(-c3ncc4c(N5C[C@H]6CC[C@@H](C5)N6)nc(OC[C@@]56CCCN5C[C@H](F)C6)nc4c3F)c12
REMARK SMILES IDX 14 1 42 2 41 3 17 4 16 5 15 6 18 7 27 8 28 9 40 10 43 11
REMARK SMILES IDX 13 12 2 13 3 14 4 15 44 16 6 17 8 18 7 19 9 20 12 21 10 22
REMARK SMILES IDX 1 23 5 24 11 25 19 27 20 28 25 29 21 30 24 31 22 32 26 33
REMARK SMILES IDX 23 34 29 36 30 37 31 38 32 39 35 40 39 41 33 42 34 43 36 44
REMARK SMILES IDX 37 45 38 46
REMARK H PARENT 11 26 26 35
ROOT
ATOM      1  C   UNL     1      19.197  -2.442  24.192  1.00  0.00    +0.109 A 
ATOM      2  C   UNL     1      19.712  -1.406  24.969  1.00  0.00    +0.176 A 
ATOM      3  C   UNL     1      21.032  -0.998  24.817  1.00  0.00    +0.119 A 
ATOM      4  C   UNL     1      21.810  -1.634  23.847  1.00  0.00    +0.065 A 
ATOM      5  C   UNL     1      21.214  -2.666  23.106  1.00  0.00    +0.126 A 
ATOM      6  N   UNL     1      19.930  -3.065  23.239  1.00  0.00    -0.252 NA
ATOM      7  C   UNL     1      23.140  -1.197  23.715  1.00  0.00    +0.145 A 
ATOM      8  N   UNL     1      23.640  -0.252  24.525  1.00  0.00    -0.177 NA
ATOM      9  C   UNL     1      22.820   0.284  25.430  1.00  0.00    +0.319 A 
ATOM     10  N   UNL     1      21.530  -0.025  25.593  1.00  0.00    -0.192 NA
ATOM     11  F   UNL     1      18.926  -0.797  25.875  1.00  0.00    -0.202 F 
ENDROOT
BRANCH   1  12
ATOM     12  C   UNL     1      17.800  -2.881  24.302  1.00  0.00    +0.016 A 
ATOM     13  C   UNL     1      18.105  -1.005  21.834  1.00  0.00    -0.067 C 
ATOM     14  C   UNL     1      16.903  -1.717  22.173  1.00  0.00    +0.068 A 
ATOM     15  C   UNL     1      15.816  -1.520  21.306  1.00  0.00    +0.139 A 
ATOM     16  C   UNL     1      16.777  -2.558  23.332  1.00  0.00    +0.010 A 
ATOM     17  C   UNL     1      14.588  -2.111  21.536  1.00  0.00    +0.041 A 
ATOM     18  C   UNL     1      15.485  -3.133  23.552  1.00  0.00    -0.013 A 
ATOM     19  C   UNL     1      14.425  -2.909  22.660  1.00  0.00    +0.012 A 
ATOM     20  C   UNL     1      15.232  -3.936  24.671  1.00  0.00    +0.055 A 
ATOM     21  C   UNL     1      17.493  -3.679  25.427  1.00  0.00    +0.057 A 
ATOM     22  C   UNL     1      16.222  -4.193  25.600  1.00  0.00    +0.116 A 
ATOM     23  C   UNL     1      19.076  -0.377  21.507  1.00  0.00    +0.010 C 
ATOM     24  F   UNL     1      15.944  -0.737  20.222  1.00  0.00    -0.206 F 
BRANCH  22  25
ATOM     25  O   UNL     1      15.903  -4.970  26.674  1.00  0.00    -0.508 OA
ATOM     26  H   UNL     1      15.617  -4.395  27.404  1.00  0.00    +0.293 HD
ENDBRANCH  22  25
ENDBRANCH   1  12
BRANCH   7  27
ATOM     27  N   UNL     1      23.976  -1.746  22.733  1.00  0.00    -0.353 N 
ATOM     28  C   UNL     1      23.474  -1.619  21.340  1.00  0.00    +0.137 C 
ATOM     29  C   UNL     1      25.434  -1.521  22.907  1.00  0.00    +0.137 C 
ATOM     30  C   UNL     1      24.265  -0.593  20.483  1.00  0.00    +0.073 C 
ATOM     31  C   UNL     1      26.060  -0.530  21.885  1.00  0.00    +0.073 C 
ATOM     32  C   UNL     1      24.234   0.818  21.078  1.00  0.00    +0.022 C 
ATOM     33  N   UNL     1      25.708  -0.926  20.499  1.00  0.00    -0.308 NA
ATOM     34  C   UNL     1      25.479   0.879  21.962  1.00  0.00    +0.022 C 
ATOM     35  H   UNL     1      26.196  -0.308  19.851  1.00  0.00    +0.123 HD
ENDBRANCH   7  27
BRANCH   9  36
ATOM     36  O   UNL     1      23.388   1.276  26.195  1.00  0.00    -0.461 OA
BRANCH  36  37
ATOM     37  C   UNL     1      22.427   2.042  26.930  1.00  0.00    +0.255 C 
BRANCH  37  38
ATOM     38  C   UNL     1      22.626   1.834  28.452  1.00  0.00    +0.058 C 
ATOM     39  C   UNL     1      24.121   1.812  28.785  1.00  0.00    +0.027 C 
ATOM     40  N   UNL     1      22.092   2.990  29.239  1.00  0.00    -0.291 NA
ATOM     41  C   UNL     1      21.889   0.572  28.961  1.00  0.00    +0.065 C 
ATOM     42  C   UNL     1      24.171   2.259  30.230  1.00  0.00    +0.018 C 
ATOM     43  C   UNL     1      23.060   3.290  30.313  1.00  0.00    +0.085 C 
ATOM     44  C   UNL     1      20.791   2.545  29.771  1.00  0.00    +0.123 C 
ATOM     45  C   UNL     1      20.928   1.057  30.027  1.00  0.00    +0.182 C 
ATOM     46  F   UNL     1      21.489   0.857  31.252  1.00  0.00    -0.246 F 
ENDBRANCH  37  38
ENDBRANCH  36  37
ENDBRANCH   9  36
TORSDOF 6
ENDMDL
