MODEL 1
REMARK VINA RESULT:   -10.998      0.000      0.000
REMARK INTER + INTRA:         -16.849
REMARK INTER:                 -15.177
REMARK INTRA:                  -1.672
REMARK UNBOUND:                -1.672
REMARK SMILES CCc1c(F)ccc2cc(O)cc(-c3ncc4c(N5CCC[C@]6(CCO6)C5)nc(OC[C@@]56CCCN5C[C@H](F)C6)nc4c3F)c12
REMARK SMILES IDX 14 1 43 2 42 3 17 4 16 5 15 6 18 7 28 8 29 9 41 10 44 11
REMARK SMILES IDX 13 12 3 13 4 14 45 15 6 16 8 17 7 18 9 19 12 20 10 21 5 22
REMARK SMILES IDX 2 23 1 24 11 25 19 27 20 28 27 29 21 30 23 31 22 32 24 33
REMARK SMILES IDX 26 34 25 35 30 36 31 37 32 38 33 39 36 40 40 41 34 42 35 43
REMARK SMILES IDX 37 44 38 45 39 46
REMARK H PARENT 11 26
ROOT
ATOM      1  C   UNL     1      19.338  -2.342  24.109  1.00  0.00    +0.109 A 
ATOM      2  C   UNL     1      19.796  -1.313  24.930  1.00  0.00    +0.176 A 
ATOM      3  C   UNL     1      21.111  -0.867  24.837  1.00  0.00    +0.119 A 
ATOM      4  C   UNL     1      21.947  -1.485  23.909  1.00  0.00    +0.065 A 
ATOM      5  C   UNL     1      21.423  -2.542  23.153  1.00  0.00    +0.126 A 
ATOM      6  N   UNL     1      20.148  -2.982  23.234  1.00  0.00    -0.252 NA
ATOM      7  C   UNL     1      23.268  -1.009  23.835  1.00  0.00    +0.145 A 
ATOM      8  N   UNL     1      23.706  -0.028  24.640  1.00  0.00    -0.177 NA
ATOM      9  C   UNL     1      22.820   0.503  25.484  1.00  0.00    +0.319 A 
ATOM     10  N   UNL     1      21.547   0.125  25.627  1.00  0.00    -0.192 NA
ATOM     11  F   UNL     1      18.961  -0.743  25.817  1.00  0.00    -0.202 F 
ENDROOT
BRANCH   1  12
ATOM     12  C   UNL     1      17.973  -2.871  24.217  1.00  0.00    +0.015 A 
ATOM     13  C   UNL     1      16.989  -1.929  21.987  1.00  0.00    -0.004 A 
ATOM     14  C   UNL     1      15.833  -1.783  21.194  1.00  0.00    +0.127 A 
ATOM     15  C   UNL     1      16.917  -2.629  23.253  1.00  0.00    -0.002 A 
ATOM     16  C   UNL     1      14.606  -2.287  21.577  1.00  0.00    +0.040 A 
ATOM     17  C   UNL     1      15.630  -3.160  23.597  1.00  0.00    -0.014 A 
ATOM     18  C   UNL     1      14.511  -2.976  22.772  1.00  0.00    +0.012 A 
ATOM     19  C   UNL     1      15.429  -3.893  24.774  1.00  0.00    +0.055 A 
ATOM     20  C   UNL     1      17.725  -3.635  25.383  1.00  0.00    +0.057 A 
ATOM     21  C   UNL     1      16.468  -4.136  25.648  1.00  0.00    +0.116 A 
ATOM     22  F   UNL     1      15.906  -1.148  20.013  1.00  0.00    -0.207 F 
BRANCH  13  23
ATOM     23  C   UNL     1      18.254  -1.376  21.364  1.00  0.00    +0.036 C 
ATOM     24  C   UNL     1      18.581   0.018  21.881  1.00  0.00    +0.009 C 
ENDBRANCH  13  23
BRANCH  21  25
ATOM     25  O   UNL     1      16.207  -4.868  26.766  1.00  0.00    -0.508 OA
ATOM     26  H   UNL     1      16.191  -4.275  27.535  1.00  0.00    +0.293 HD
ENDBRANCH  21  25
ENDBRANCH   1  12
BRANCH   7  27
ATOM     27  N   UNL     1      24.164  -1.561  22.884  1.00  0.00    -0.353 N 
ATOM     28  C   UNL     1      24.619  -0.508  21.942  1.00  0.00    +0.118 C 
ATOM     29  C   UNL     1      25.286  -2.279  23.521  1.00  0.00    +0.153 C 
ATOM     30  C   UNL     1      25.927  -0.902  21.239  1.00  0.00    +0.024 C 
ATOM     31  C   UNL     1      26.057  -3.084  22.450  1.00  0.00    +0.088 C 
ATOM     32  C   UNL     1      26.040  -2.413  21.070  1.00  0.00    +0.039 C 
ATOM     33  C   UNL     1      25.789  -4.602  22.416  1.00  0.00    +0.066 C 
ATOM     34  O   UNL     1      27.431  -3.320  22.883  1.00  0.00    -0.373 OA
ATOM     35  C   UNL     1      27.160  -4.729  23.070  1.00  0.00    +0.164 C 
ENDBRANCH   7  27
BRANCH   9  36
ATOM     36  O   UNL     1      23.320   1.449  26.345  1.00  0.00    -0.461 OA
BRANCH  36  37
ATOM     37  C   UNL     1      22.553   1.547  27.549  1.00  0.00    +0.255 C 
BRANCH  37  38
ATOM     38  C   UNL     1      23.060   2.725  28.414  1.00  0.00    +0.058 C 
ATOM     39  C   UNL     1      22.558   2.594  29.873  1.00  0.00    +0.027 C 
ATOM     40  N   UNL     1      24.555   2.734  28.488  1.00  0.00    -0.291 NA
ATOM     41  C   UNL     1      22.681   4.069  27.779  1.00  0.00    +0.065 C 
ATOM     42  C   UNL     1      23.805   2.635  30.740  1.00  0.00    +0.018 C 
ATOM     43  C   UNL     1      24.898   2.169  29.801  1.00  0.00    +0.085 C 
ATOM     44  C   UNL     1      24.990   4.148  28.365  1.00  0.00    +0.123 C 
ATOM     45  C   UNL     1      23.745   5.017  28.273  1.00  0.00    +0.182 C 
ATOM     46  F   UNL     1      23.407   5.466  29.513  1.00  0.00    -0.246 F 
ENDBRANCH  37  38
ENDBRANCH  36  37
ENDBRANCH   9  36
TORSDOF 7
ENDMDL
MODEL 2
REMARK VINA RESULT:    -9.982      4.322      7.754
REMARK INTER + INTRA:         -15.447
REMARK INTER:                 -13.452
REMARK INTRA:                  -1.995
REMARK UNBOUND:                -1.672
REMARK SMILES CCc1c(F)ccc2cc(O)cc(-c3ncc4c(N5CCC[C@]6(CCO6)C5)nc(OC[C@@]56CCCN5C[C@H](F)C6)nc4c3F)c12
REMARK SMILES IDX 14 1 43 2 42 3 17 4 16 5 15 6 18 7 28 8 29 9 41 10 44 11
REMARK SMILES IDX 13 12 3 13 4 14 45 15 6 16 8 17 7 18 9 19 12 20 10 21 5 22
REMARK SMILES IDX 2 23 1 24 11 25 19 27 20 28 27 29 21 30 23 31 22 32 24 33
REMARK SMILES IDX 26 34 25 35 30 36 31 37 32 38 33 39 36 40 40 41 34 42 35 43
REMARK SMILES IDX 37 44 38 45 39 46
REMARK H PARENT 11 26
ROOT
ATOM      1  C   UNL     1      19.640  -3.401  24.351  1.00  0.00    +0.109 A 
ATOM      2  C   UNL     1      20.185  -4.612  23.929  1.00  0.00    +0.176 A 
ATOM      3  C   UNL     1      21.485  -4.670  23.440  1.00  0.00    +0.119 A 
ATOM      4  C   UNL     1      22.215  -3.484  23.380  1.00  0.00    +0.065 A 
ATOM      5  C   UNL     1      21.582  -2.301  23.783  1.00  0.00    +0.126 A 
ATOM      6  N   UNL     1      20.319  -2.234  24.260  1.00  0.00    -0.252 NA
ATOM      7  C   UNL     1      23.529  -3.576  22.888  1.00  0.00    +0.145 A 
ATOM      8  N   UNL     1      24.041  -4.743  22.467  1.00  0.00    -0.177 NA
ATOM      9  C   UNL     1      23.262  -5.820  22.579  1.00  0.00    +0.319 A 
ATOM     10  N   UNL     1      22.006  -5.838  23.037  1.00  0.00    -0.192 NA
ATOM     11  F   UNL     1      19.449  -5.736  23.997  1.00  0.00    -0.202 F 
ENDROOT
BRANCH   1  12
ATOM     12  C   UNL     1      18.254  -3.296  24.824  1.00  0.00    +0.015 A 
ATOM     13  C   UNL     1      17.043  -3.113  22.517  1.00  0.00    -0.004 A 
ATOM     14  C   UNL     1      15.812  -2.911  21.860  1.00  0.00    +0.127 A 
ATOM     15  C   UNL     1      17.100  -3.124  23.964  1.00  0.00    -0.002 A 
ATOM     16  C   UNL     1      14.631  -2.718  22.548  1.00  0.00    +0.040 A 
ATOM     17  C   UNL     1      15.846  -2.949  24.636  1.00  0.00    -0.014 A 
ATOM     18  C   UNL     1      14.652  -2.743  23.931  1.00  0.00    +0.012 A 
ATOM     19  C   UNL     1      15.751  -2.978  26.034  1.00  0.00    +0.055 A 
ATOM     20  C   UNL     1      18.106  -3.339  26.232  1.00  0.00    +0.057 A 
ATOM     21  C   UNL     1      16.867  -3.183  26.819  1.00  0.00    +0.116 A 
ATOM     22  F   UNL     1      15.759  -2.918  20.518  1.00  0.00    -0.207 F 
BRANCH  13  23
ATOM     23  C   UNL     1      18.213  -3.382  21.593  1.00  0.00    +0.036 C 
ATOM     24  C   UNL     1      18.893  -2.095  21.146  1.00  0.00    +0.009 C 
ENDBRANCH  13  23
BRANCH  21  25
ATOM     25  O   UNL     1      16.703  -3.216  28.170  1.00  0.00    -0.508 OA
ATOM     26  H   UNL     1      15.868  -2.775  28.397  1.00  0.00    +0.293 HD
ENDBRANCH  21  25
ENDBRANCH   1  12
BRANCH   7  27
ATOM     27  N   UNL     1      24.346  -2.418  22.839  1.00  0.00    -0.353 N 
ATOM     28  C   UNL     1      25.763  -2.782  23.087  1.00  0.00    +0.118 C 
ATOM     29  C   UNL     1      24.165  -1.655  21.587  1.00  0.00    +0.153 C 
ATOM     30  C   UNL     1      26.727  -1.707  22.562  1.00  0.00    +0.024 C 
ATOM     31  C   UNL     1      24.858  -0.280  21.716  1.00  0.00    +0.088 C 
ATOM     32  C   UNL     1      26.101  -0.318  22.615  1.00  0.00    +0.039 C 
ATOM     33  C   UNL     1      23.933   0.928  21.972  1.00  0.00    +0.066 C 
ATOM     34  O   UNL     1      25.201   0.242  20.397  1.00  0.00    -0.373 OA
ATOM     35  C   UNL     1      24.189   1.269  20.508  1.00  0.00    +0.164 C 
ENDBRANCH   7  27
BRANCH   9  36
ATOM     36  O   UNL     1      23.786  -6.982  22.070  1.00  0.00    -0.461 OA
BRANCH  36  37
ATOM     37  C   UNL     1      25.103  -6.798  21.540  1.00  0.00    +0.255 C 
BRANCH  37  38
ATOM     38  C   UNL     1      25.728  -8.164  21.169  1.00  0.00    +0.058 C 
ATOM     39  C   UNL     1      27.031  -7.971  20.355  1.00  0.00    +0.027 C 
ATOM     40  N   UNL     1      26.115  -8.929  22.396  1.00  0.00    -0.291 NA
ATOM     41  C   UNL     1      24.708  -9.052  20.447  1.00  0.00    +0.065 C 
ATOM     42  C   UNL     1      28.105  -8.732  21.113  1.00  0.00    +0.018 C 
ATOM     43  C   UNL     1      27.571  -8.770  22.529  1.00  0.00    +0.085 C 
ATOM     44  C   UNL     1      25.734 -10.345  22.166  1.00  0.00    +0.123 C 
ATOM     45  C   UNL     1      25.161 -10.455  20.761  1.00  0.00    +0.182 C 
ATOM     46  F   UNL     1      26.145 -10.816  19.892  1.00  0.00    -0.246 F 
ENDBRANCH  37  38
ENDBRANCH  36  37
ENDBRANCH   9  36
TORSDOF 7
ENDMDL
MODEL 3
REMARK VINA RESULT:    -9.419      4.161      8.407
REMARK INTER + INTRA:         -14.671
REMARK INTER:                 -13.132
REMARK INTRA:                  -1.539
REMARK UNBOUND:                -1.672
REMARK SMILES CCc1c(F)ccc2cc(O)cc(-c3ncc4c(N5CCC[C@]6(CCO6)C5)nc(OC[C@@]56CCCN5C[C@H](F)C6)nc4c3F)c12
REMARK SMILES IDX 14 1 43 2 42 3 17 4 16 5 15 6 18 7 28 8 29 9 41 10 44 11
REMARK SMILES IDX 13 12 3 13 4 14 45 15 6 16 8 17 7 18 9 19 12 20 10 21 5 22
REMARK SMILES IDX 2 23 1 24 11 25 19 27 20 28 27 29 21 30 23 31 22 32 24 33
REMARK SMILES IDX 26 34 25 35 30 36 31 37 32 38 33 39 36 40 40 41 34 42 35 43
REMARK SMILES IDX 37 44 38 45 39 46
REMARK H PARENT 11 26
ROOT
ATOM      1  C   UNL     1      20.065  -3.007  22.884  1.00  0.00    +0.109 A 
ATOM      2  C   UNL     1      20.593  -4.296  22.810  1.00  0.00    +0.176 A 
ATOM      3  C   UNL     1      21.965  -4.492  22.701  1.00  0.00    +0.119 A 
ATOM      4  C   UNL     1      22.786  -3.366  22.662  1.00  0.00    +0.065 A 
ATOM      5  C   UNL     1      22.176  -2.106  22.699  1.00  0.00    +0.126 A 
ATOM      6  N   UNL     1      20.844  -1.903  22.805  1.00  0.00    -0.252 NA
ATOM      7  C   UNL     1      24.169  -3.598  22.559  1.00  0.00    +0.145 A 
ATOM      8  N   UNL     1      24.668  -4.841  22.470  1.00  0.00    -0.177 NA
ATOM      9  C   UNL     1      23.796  -5.848  22.529  1.00  0.00    +0.319 A 
ATOM     10  N   UNL     1      22.468  -5.733  22.631  1.00  0.00    -0.192 NA
ATOM     11  F   UNL     1      19.769  -5.358  22.845  1.00  0.00    -0.202 F 
ENDROOT
BRANCH   1  12
ATOM     12  C   UNL     1      18.619  -2.763  22.948  1.00  0.00    +0.015 A 
ATOM     13  C   UNL     1      18.260  -3.075  25.516  1.00  0.00    -0.004 A 
ATOM     14  C   UNL     1      17.317  -3.136  26.562  1.00  0.00    +0.127 A 
ATOM     15  C   UNL     1      17.822  -2.843  24.156  1.00  0.00    -0.002 A 
ATOM     16  C   UNL     1      15.962  -2.982  26.344  1.00  0.00    +0.040 A 
ATOM     17  C   UNL     1      16.411  -2.661  23.981  1.00  0.00    -0.014 A 
ATOM     18  C   UNL     1      15.516  -2.740  25.058  1.00  0.00    +0.012 A 
ATOM     19  C   UNL     1      15.856  -2.389  22.723  1.00  0.00    +0.055 A 
ATOM     20  C   UNL     1      18.015  -2.466  21.702  1.00  0.00    +0.057 A 
ATOM     21  C   UNL     1      16.652  -2.281  21.602  1.00  0.00    +0.116 A 
ATOM     22  F   UNL     1      17.728  -3.335  27.825  1.00  0.00    -0.207 F 
BRANCH  13  23
ATOM     23  C   UNL     1      19.703  -3.191  25.963  1.00  0.00    +0.036 C 
ATOM     24  C   UNL     1      20.355  -1.827  26.144  1.00  0.00    +0.009 C 
ENDBRANCH  13  23
BRANCH  21  25
ATOM     25  O   UNL     1      16.050  -2.001  20.413  1.00  0.00    -0.508 OA
ATOM     26  H   UNL     1      15.158  -2.386  20.412  1.00  0.00    +0.293 HD
ENDBRANCH  21  25
ENDBRANCH   1  12
BRANCH   7  27
ATOM     27  N   UNL     1      25.069  -2.502  22.558  1.00  0.00    -0.353 N 
ATOM     28  C   UNL     1      26.459  -2.983  22.749  1.00  0.00    +0.118 C 
ATOM     29  C   UNL     1      24.920  -1.654  21.357  1.00  0.00    +0.153 C 
ATOM     30  C   UNL     1      27.490  -1.952  22.264  1.00  0.00    +0.024 C 
ATOM     31  C   UNL     1      25.716  -0.343  21.549  1.00  0.00    +0.088 C 
ATOM     32  C   UNL     1      26.971  -0.526  22.414  1.00  0.00    +0.039 C 
ATOM     33  C   UNL     1      24.889   0.911  21.898  1.00  0.00    +0.066 C 
ATOM     34  O   UNL     1      26.070   0.231  20.255  1.00  0.00    -0.373 OA
ATOM     35  C   UNL     1      25.140   1.321  20.451  1.00  0.00    +0.164 C 
ENDBRANCH   7  27
BRANCH   9  36
ATOM     36  O   UNL     1      24.330  -7.101  22.358  1.00  0.00    -0.461 OA
BRANCH  36  37
ATOM     37  C   UNL     1      24.547  -7.416  20.979  1.00  0.00    +0.255 C 
BRANCH  37  38
ATOM     38  C   UNL     1      24.849  -8.925  20.814  1.00  0.00    +0.058 C 
ATOM     39  C   UNL     1      26.363  -9.164  20.597  1.00  0.00    +0.027 C 
ATOM     40  N   UNL     1      24.480  -9.685  22.050  1.00  0.00    -0.291 NA
ATOM     41  C   UNL     1      23.990  -9.532  19.697  1.00  0.00    +0.065 C 
ATOM     42  C   UNL     1      26.781 -10.147  21.677  1.00  0.00    +0.018 C 
ATOM     43  C   UNL     1      25.743  -9.938  22.760  1.00  0.00    +0.085 C 
ATOM     44  C   UNL     1      23.833 -10.946  21.609  1.00  0.00    +0.123 C 
ATOM     45  C   UNL     1      23.858 -10.982  20.088  1.00  0.00    +0.182 C 
ATOM     46  F   UNL     1      24.957 -11.665  19.665  1.00  0.00    -0.246 F 
ENDBRANCH  37  38
ENDBRANCH  36  37
ENDBRANCH   9  36
TORSDOF 7
ENDMDL
MODEL 4
REMARK VINA RESULT:    -9.206      5.856     11.619
REMARK INTER + INTRA:         -14.377
REMARK INTER:                 -12.388
REMARK INTRA:                  -1.989
REMARK UNBOUND:                -1.672
REMARK SMILES CCc1c(F)ccc2cc(O)cc(-c3ncc4c(N5CCC[C@]6(CCO6)C5)nc(OC[C@@]56CCCN5C[C@H](F)C6)nc4c3F)c12
REMARK SMILES IDX 14 1 43 2 42 3 17 4 16 5 15 6 18 7 28 8 29 9 41 10 44 11
REMARK SMILES IDX 13 12 3 13 4 14 45 15 6 16 8 17 7 18 9 19 12 20 10 21 5 22
REMARK SMILES IDX 2 23 1 24 11 25 19 27 20 28 27 29 21 30 23 31 22 32 24 33
REMARK SMILES IDX 26 34 25 35 30 36 31 37 32 38 33 39 36 40 40 41 34 42 35 43
REMARK SMILES IDX 37 44 38 45 39 46
REMARK H PARENT 11 26
ROOT
ATOM      1  C   UNL     1      28.297  -6.557  20.183  1.00  0.00    +0.109 A 
ATOM      2  C   UNL     1      27.216  -5.816  20.658  1.00  0.00    +0.176 A 
ATOM      3  C   UNL     1      26.050  -6.451  21.073  1.00  0.00    +0.119 A 
ATOM      4  C   UNL     1      25.999  -7.842  20.990  1.00  0.00    +0.065 A 
ATOM      5  C   UNL     1      27.111  -8.511  20.462  1.00  0.00    +0.126 A 
ATOM      6  N   UNL     1      28.248  -7.903  20.056  1.00  0.00    -0.252 NA
ATOM      7  C   UNL     1      24.810  -8.455  21.422  1.00  0.00    +0.145 A 
ATOM      8  N   UNL     1      23.767  -7.734  21.862  1.00  0.00    -0.177 NA
ATOM      9  C   UNL     1      23.926  -6.410  21.912  1.00  0.00    +0.319 A 
ATOM     10  N   UNL     1      25.014  -5.734  21.530  1.00  0.00    -0.192 NA
ATOM     11  F   UNL     1      27.300  -4.474  20.718  1.00  0.00    -0.202 F 
ENDROOT
BRANCH   1  12
ATOM     12  C   UNL     1      29.521  -5.915  19.690  1.00  0.00    +0.015 A 
ATOM     13  C   UNL     1      30.780  -5.629  21.961  1.00  0.00    -0.004 A 
ATOM     14  C   UNL     1      31.918  -5.100  22.604  1.00  0.00    +0.127 A 
ATOM     15  C   UNL     1      30.614  -5.468  20.532  1.00  0.00    -0.002 A 
ATOM     16  C   UNL     1      32.904  -4.419  21.918  1.00  0.00    +0.040 A 
ATOM     17  C   UNL     1      31.675  -4.780  19.856  1.00  0.00    -0.014 A 
ATOM     18  C   UNL     1      32.781  -4.267  20.549  1.00  0.00    +0.012 A 
ATOM     19  C   UNL     1      31.661  -4.590  18.468  1.00  0.00    +0.055 A 
ATOM     20  C   UNL     1      29.562  -5.718  18.288  1.00  0.00    +0.057 A 
ATOM     21  C   UNL     1      30.622  -5.066  17.695  1.00  0.00    +0.116 A 
ATOM     22  F   UNL     1      32.078  -5.264  23.927  1.00  0.00    -0.207 F 
BRANCH  13  23
ATOM     23  C   UNL     1      29.849  -6.407  22.869  1.00  0.00    +0.036 C 
ATOM     24  C   UNL     1      28.969  -5.489  23.704  1.00  0.00    +0.009 C 
ENDBRANCH  13  23
BRANCH  21  25
ATOM     25  O   UNL     1      30.678  -4.860  16.350  1.00  0.00    -0.508 OA
ATOM     26  H   UNL     1      31.603  -4.718  16.091  1.00  0.00    +0.293 HD
ENDBRANCH  21  25
ENDBRANCH   1  12
BRANCH   7  27
ATOM     27  N   UNL     1      24.701  -9.869  21.408  1.00  0.00    -0.353 N 
ATOM     28  C   UNL     1      23.941 -10.334  22.595  1.00  0.00    +0.118 C 
ATOM     29  C   UNL     1      24.142 -10.377  20.139  1.00  0.00    +0.153 C 
ATOM     30  C   UNL     1      23.366 -11.743  22.386  1.00  0.00    +0.024 C 
ATOM     31  C   UNL     1      24.311 -11.912  20.079  1.00  0.00    +0.088 C 
ATOM     32  C   UNL     1      24.246 -12.577  21.461  1.00  0.00    +0.039 C 
ATOM     33  C   UNL     1      25.451 -12.437  19.182  1.00  0.00    +0.066 C 
ATOM     34  O   UNL     1      23.317 -12.499  19.185  1.00  0.00    -0.373 OA
ATOM     35  C   UNL     1      24.338 -12.820  18.213  1.00  0.00    +0.164 C 
ENDBRANCH   7  27
BRANCH   9  36
ATOM     36  O   UNL     1      22.816  -5.698  22.293  1.00  0.00    -0.461 OA
BRANCH  36  37
ATOM     37  C   UNL     1      23.150  -4.557  23.090  1.00  0.00    +0.255 C 
BRANCH  37  38
ATOM     38  C   UNL     1      21.865  -3.861  23.598  1.00  0.00    +0.058 C 
ATOM     39  C   UNL     1      21.882  -3.728  25.140  1.00  0.00    +0.027 C 
ATOM     40  N   UNL     1      21.760  -2.468  23.061  1.00  0.00    -0.291 NA
ATOM     41  C   UNL     1      20.614  -4.586  23.083  1.00  0.00    +0.065 C 
ATOM     42  C   UNL     1      21.682  -2.250  25.426  1.00  0.00    +0.018 C 
ATOM     43  C   UNL     1      22.172  -1.580  24.159  1.00  0.00    +0.085 C 
ATOM     44  C   UNL     1      20.341  -2.253  22.681  1.00  0.00    +0.123 C 
ATOM     45  C   UNL     1      19.561  -3.508  23.042  1.00  0.00    +0.182 C 
ATOM     46  F   UNL     1      19.014  -3.366  24.281  1.00  0.00    -0.246 F 
ENDBRANCH  37  38
ENDBRANCH  36  37
ENDBRANCH   9  36
TORSDOF 7
ENDMDL
MODEL 5
REMARK VINA RESULT:    -8.752      5.778     10.756
REMARK INTER + INTRA:         -13.750
REMARK INTER:                 -11.624
REMARK INTRA:                  -2.126
REMARK UNBOUND:                -1.672
REMARK SMILES CCc1c(F)ccc2cc(O)cc(-c3ncc4c(N5CCC[C@]6(CCO6)C5)nc(OC[C@@]56CCCN5C[C@H](F)C6)nc4c3F)c12
REMARK SMILES IDX 14 1 43 2 42 3 17 4 16 5 15 6 18 7 28 8 29 9 41 10 44 11
REMARK SMILES IDX 13 12 3 13 4 14 45 15 6 16 8 17 7 18 9 19 12 20 10 21 5 22
REMARK SMILES IDX 2 23 1 24 11 25 19 27 20 28 27 29 21 30 23 31 22 32 24 33
REMARK SMILES IDX 26 34 25 35 30 36 31 37 32 38 33 39 36 40 40 41 34 42 35 43
REMARK SMILES IDX 37 44 38 45 39 46
REMARK H PARENT 11 26
ROOT
ATOM      1  C   UNL     1      26.373  -2.686  22.263  1.00  0.00    +0.109 A 
ATOM      2  C   UNL     1      26.807  -3.545  21.254  1.00  0.00    +0.176 A 
ATOM      3  C   UNL     1      27.697  -4.576  21.536  1.00  0.00    +0.119 A 
ATOM      4  C   UNL     1      28.143  -4.713  22.850  1.00  0.00    +0.065 A 
ATOM      5  C   UNL     1      27.694  -3.783  23.797  1.00  0.00    +0.126 A 
ATOM      6  N   UNL     1      26.829  -2.779  23.534  1.00  0.00    -0.252 NA
ATOM      7  C   UNL     1      29.037  -5.768  23.105  1.00  0.00    +0.145 A 
ATOM      8  N   UNL     1      29.463  -6.580  22.125  1.00  0.00    -0.177 NA
ATOM      9  C   UNL     1      28.965  -6.368  20.905  1.00  0.00    +0.319 A 
ATOM     10  N   UNL     1      28.110  -5.400  20.563  1.00  0.00    -0.192 NA
ATOM     11  F   UNL     1      26.359  -3.379  19.996  1.00  0.00    -0.202 F 
ENDROOT
BRANCH   1  12
ATOM     12  C   UNL     1      25.475  -1.558  21.989  1.00  0.00    +0.015 A 
ATOM     13  C   UNL     1      23.229  -2.612  22.808  1.00  0.00    -0.004 A 
ATOM     14  C   UNL     1      21.834  -2.441  22.919  1.00  0.00    +0.127 A 
ATOM     15  C   UNL     1      24.042  -1.573  22.211  1.00  0.00    -0.002 A 
ATOM     16  C   UNL     1      21.192  -1.304  22.472  1.00  0.00    +0.040 A 
ATOM     17  C   UNL     1      23.337  -0.399  21.788  1.00  0.00    -0.014 A 
ATOM     18  C   UNL     1      21.945  -0.287  21.914  1.00  0.00    +0.012 A 
ATOM     19  C   UNL     1      24.006   0.699  21.230  1.00  0.00    +0.055 A 
ATOM     20  C   UNL     1      26.109  -0.417  21.440  1.00  0.00    +0.057 A 
ATOM     21  C   UNL     1      25.377   0.691  21.071  1.00  0.00    +0.116 A 
ATOM     22  F   UNL     1      21.084  -3.399  23.488  1.00  0.00    -0.207 F 
BRANCH  13  23
ATOM     23  C   UNL     1      23.757  -3.892  23.423  1.00  0.00    +0.036 C 
ATOM     24  C   UNL     1      23.477  -5.103  22.545  1.00  0.00    +0.009 C 
ENDBRANCH  13  23
BRANCH  21  25
ATOM     25  O   UNL     1      25.966   1.796  20.536  1.00  0.00    -0.508 OA
ATOM     26  H   UNL     1      26.622   1.516  19.876  1.00  0.00    +0.293 HD
ENDBRANCH  21  25
ENDBRANCH   1  12
BRANCH   7  27
ATOM     27  N   UNL     1      29.499  -5.995  24.426  1.00  0.00    -0.353 N 
ATOM     28  C   UNL     1      29.108  -7.354  24.876  1.00  0.00    +0.118 C 
ATOM     29  C   UNL     1      30.948  -5.744  24.566  1.00  0.00    +0.153 C 
ATOM     30  C   UNL     1      29.978  -7.839  26.045  1.00  0.00    +0.024 C 
ATOM     31  C   UNL     1      31.328  -5.736  26.064  1.00  0.00    +0.088 C 
ATOM     32  C   UNL     1      30.457  -6.677  26.908  1.00  0.00    +0.039 C 
ATOM     33  C   UNL     1      31.556  -4.350  26.701  1.00  0.00    +0.066 C 
ATOM     34  O   UNL     1      32.740  -6.063  26.233  1.00  0.00    -0.373 OA
ATOM     35  C   UNL     1      33.037  -4.706  26.633  1.00  0.00    +0.164 C 
ENDBRANCH   7  27
BRANCH   9  36
ATOM     36  O   UNL     1      29.478  -7.166  19.913  1.00  0.00    -0.461 OA
BRANCH  36  37
ATOM     37  C   UNL     1      30.850  -6.870  19.633  1.00  0.00    +0.255 C 
BRANCH  37  38
ATOM     38  C   UNL     1      30.968  -6.061  18.319  1.00  0.00    +0.058 C 
ATOM     39  C   UNL     1      31.121  -4.549  18.614  1.00  0.00    +0.027 C 
ATOM     40  N   UNL     1      32.188  -6.461  17.549  1.00  0.00    -0.291 NA
ATOM     41  C   UNL     1      29.787  -6.363  17.387  1.00  0.00    +0.065 C 
ATOM     42  C   UNL     1      32.393  -4.120  17.903  1.00  0.00    +0.018 C 
ATOM     43  C   UNL     1      33.184  -5.407  17.796  1.00  0.00    +0.085 C 
ATOM     44  C   UNL     1      31.798  -6.527  16.118  1.00  0.00    +0.123 C 
ATOM     45  C   UNL     1      30.340  -6.108  16.007  1.00  0.00    +0.182 C 
ATOM     46  F   UNL     1      30.266  -4.778  15.731  1.00  0.00    -0.246 F 
ENDBRANCH  37  38
ENDBRANCH  36  37
ENDBRANCH   9  36
TORSDOF 7
ENDMDL
MODEL 6
REMARK VINA RESULT:    -8.545      5.556      8.113
REMARK INTER + INTRA:         -13.464
REMARK INTER:                 -11.879
REMARK INTRA:                  -1.585
REMARK UNBOUND:                -1.672
REMARK SMILES CCc1c(F)ccc2cc(O)cc(-c3ncc4c(N5CCC[C@]6(CCO6)C5)nc(OC[C@@]56CCCN5C[C@H](F)C6)nc4c3F)c12
REMARK SMILES IDX 14 1 43 2 42 3 17 4 16 5 15 6 18 7 28 8 29 9 41 10 44 11
REMARK SMILES IDX 13 12 3 13 4 14 45 15 6 16 8 17 7 18 9 19 12 20 10 21 5 22
REMARK SMILES IDX 2 23 1 24 11 25 19 27 20 28 27 29 21 30 23 31 22 32 24 33
REMARK SMILES IDX 26 34 25 35 30 36 31 37 32 38 33 39 36 40 40 41 34 42 35 43
REMARK SMILES IDX 37 44 38 45 39 46
REMARK H PARENT 11 26
ROOT
ATOM      1  C   UNL     1      25.679  -3.720  22.213  1.00  0.00    +0.109 A 
ATOM      2  C   UNL     1      26.712  -3.090  22.906  1.00  0.00    +0.176 A 
ATOM      3  C   UNL     1      28.039  -3.410  22.641  1.00  0.00    +0.119 A 
ATOM      4  C   UNL     1      28.298  -4.379  21.672  1.00  0.00    +0.065 A 
ATOM      5  C   UNL     1      27.204  -4.996  21.051  1.00  0.00    +0.126 A 
ATOM      6  N   UNL     1      25.911  -4.693  21.302  1.00  0.00    -0.252 NA
ATOM      7  C   UNL     1      29.649  -4.675  21.423  1.00  0.00    +0.145 A 
ATOM      8  N   UNL     1      30.637  -4.077  22.106  1.00  0.00    -0.177 NA
ATOM      9  C   UNL     1      30.281  -3.156  23.002  1.00  0.00    +0.319 A 
ATOM     10  N   UNL     1      29.029  -2.800  23.308  1.00  0.00    -0.192 NA
ATOM     11  F   UNL     1      26.424  -2.163  23.838  1.00  0.00    -0.202 F 
ENDROOT
BRANCH   1  12
ATOM     12  C   UNL     1      24.267  -3.443  22.505  1.00  0.00    +0.015 A 
ATOM     13  C   UNL     1      24.145  -0.979  21.648  1.00  0.00    -0.004 A 
ATOM     14  C   UNL     1      23.344   0.176  21.532  1.00  0.00    +0.127 A 
ATOM     15  C   UNL     1      23.612  -2.171  22.273  1.00  0.00    -0.002 A 
ATOM     16  C   UNL     1      22.046   0.224  21.998  1.00  0.00    +0.040 A 
ATOM     17  C   UNL     1      22.251  -2.085  22.716  1.00  0.00    -0.014 A 
ATOM     18  C   UNL     1      21.504  -0.906  22.582  1.00  0.00    +0.012 A 
ATOM     19  C   UNL     1      21.599  -3.178  23.301  1.00  0.00    +0.055 A 
ATOM     20  C   UNL     1      23.560  -4.526  23.082  1.00  0.00    +0.057 A 
ATOM     21  C   UNL     1      22.244  -4.386  23.470  1.00  0.00    +0.116 A 
ATOM     22  F   UNL     1      23.835   1.276  20.937  1.00  0.00    -0.207 F 
BRANCH  13  23
ATOM     23  C   UNL     1      25.514  -0.862  21.010  1.00  0.00    +0.036 C 
ATOM     24  C   UNL     1      26.312   0.301  21.583  1.00  0.00    +0.009 C 
ENDBRANCH  13  23
BRANCH  21  25
ATOM     25  O   UNL     1      21.547  -5.412  24.032  1.00  0.00    -0.508 OA
ATOM     26  H   UNL     1      20.658  -5.099  24.266  1.00  0.00    +0.293 HD
ENDBRANCH  21  25
ENDBRANCH   1  12
BRANCH   7  27
ATOM     27  N   UNL     1      29.989  -5.619  20.420  1.00  0.00    -0.353 N 
ATOM     28  C   UNL     1      30.199  -4.931  19.122  1.00  0.00    +0.118 C 
ATOM     29  C   UNL     1      31.137  -6.464  20.810  1.00  0.00    +0.153 C 
ATOM     30  C   UNL     1      31.036  -5.784  18.156  1.00  0.00    +0.024 C 
ATOM     31  C   UNL     1      31.275  -7.637  19.814  1.00  0.00    +0.088 C 
ATOM     32  C   UNL     1      30.822  -7.274  18.393  1.00  0.00    +0.039 C 
ATOM     33  C   UNL     1      30.769  -9.009  20.304  1.00  0.00    +0.066 C 
ATOM     34  O   UNL     1      32.648  -8.132  19.798  1.00  0.00    -0.373 OA
ATOM     35  C   UNL     1      32.246  -9.355  20.457  1.00  0.00    +0.164 C 
ENDBRANCH   7  27
BRANCH   9  36
ATOM     36  O   UNL     1      31.309  -2.619  23.736  1.00  0.00    -0.461 OA
BRANCH  36  37
ATOM     37  C   UNL     1      30.894  -1.484  24.504  1.00  0.00    +0.255 C 
BRANCH  37  38
ATOM     38  C   UNL     1      31.322  -0.174  23.800  1.00  0.00    +0.058 C 
ATOM     39  C   UNL     1      30.113   0.502  23.111  1.00  0.00    +0.027 C 
ATOM     40  N   UNL     1      31.848   0.820  24.788  1.00  0.00    -0.291 NA
ATOM     41  C   UNL     1      32.484  -0.431  22.832  1.00  0.00    +0.065 C 
ATOM     42  C   UNL     1      30.059   1.913  23.671  1.00  0.00    +0.018 C 
ATOM     43  C   UNL     1      30.760   1.785  25.007  1.00  0.00    +0.085 C 
ATOM     44  C   UNL     1      33.038   1.460  24.173  1.00  0.00    +0.123 C 
ATOM     45  C   UNL     1      33.206   0.891  22.772  1.00  0.00    +0.182 C 
ATOM     46  F   UNL     1      32.586   1.702  21.871  1.00  0.00    -0.246 F 
ENDBRANCH  37  38
ENDBRANCH  36  37
ENDBRANCH   9  36
TORSDOF 7
ENDMDL
MODEL 7
REMARK VINA RESULT:    -8.235      6.461     10.490
REMARK INTER + INTRA:         -13.037
REMARK INTER:                 -10.977
REMARK INTRA:                  -2.059
REMARK UNBOUND:                -1.672
REMARK SMILES CCc1c(F)ccc2cc(O)cc(-c3ncc4c(N5CCC[C@]6(CCO6)C5)nc(OC[C@@]56CCCN5C[C@H](F)C6)nc4c3F)c12
REMARK SMILES IDX 14 1 43 2 42 3 17 4 16 5 15 6 18 7 28 8 29 9 41 10 44 11
REMARK SMILES IDX 13 12 3 13 4 14 45 15 6 16 8 17 7 18 9 19 12 20 10 21 5 22
REMARK SMILES IDX 2 23 1 24 11 25 19 27 20 28 27 29 21 30 23 31 22 32 24 33
REMARK SMILES IDX 26 34 25 35 30 36 31 37 32 38 33 39 36 40 40 41 34 42 35 43
REMARK SMILES IDX 37 44 38 45 39 46
REMARK H PARENT 11 26
ROOT
ATOM      1  C   UNL     1      25.751 -10.552  20.917  1.00  0.00    +0.109 A 
ATOM      2  C   UNL     1      24.666  -9.746  21.257  1.00  0.00    +0.176 A 
ATOM      3  C   UNL     1      24.833  -8.378  21.447  1.00  0.00    +0.119 A 
ATOM      4  C   UNL     1      26.114  -7.849  21.294  1.00  0.00    +0.065 A 
ATOM      5  C   UNL     1      27.159  -8.732  20.994  1.00  0.00    +0.126 A 
ATOM      6  N   UNL     1      27.007 -10.062  20.807  1.00  0.00    -0.252 NA
ATOM      7  C   UNL     1      26.250  -6.463  21.487  1.00  0.00    +0.145 A 
ATOM      8  N   UNL     1      25.204  -5.696  21.831  1.00  0.00    -0.177 NA
ATOM      9  C   UNL     1      24.020  -6.301  21.939  1.00  0.00    +0.319 A 
ATOM     10  N   UNL     1      23.787  -7.606  21.772  1.00  0.00    -0.192 NA
ATOM     11  F   UNL     1      23.445 -10.293  21.400  1.00  0.00    -0.202 F 
ENDROOT
BRANCH   1  12
ATOM     12  C   UNL     1      25.618 -12.006  20.759  1.00  0.00    +0.015 A 
ATOM     13  C   UNL     1      25.713 -12.704  23.274  1.00  0.00    -0.004 A 
ATOM     14  C   UNL     1      25.750 -13.781  24.184  1.00  0.00    +0.127 A 
ATOM     15  C   UNL     1      25.646 -12.960  21.851  1.00  0.00    -0.002 A 
ATOM     16  C   UNL     1      25.726 -15.098  23.771  1.00  0.00    +0.040 A 
ATOM     17  C   UNL     1      25.595 -14.340  21.469  1.00  0.00    -0.014 A 
ATOM     18  C   UNL     1      25.644 -15.372  22.417  1.00  0.00    +0.012 A 
ATOM     19  C   UNL     1      25.489 -14.728  20.126  1.00  0.00    +0.055 A 
ATOM     20  C   UNL     1      25.490 -12.445  19.418  1.00  0.00    +0.057 A 
ATOM     21  C   UNL     1      25.425 -13.789  19.117  1.00  0.00    +0.116 A 
ATOM     22  F   UNL     1      25.795 -13.541  25.505  1.00  0.00    -0.207 F 
BRANCH  13  23
ATOM     23  C   UNL     1      25.670 -11.335  23.921  1.00  0.00    +0.036 C 
ATOM     24  C   UNL     1      27.060 -10.839  24.298  1.00  0.00    +0.009 C 
ENDBRANCH  13  23
BRANCH  21  25
ATOM     25  O   UNL     1      25.308 -14.233  17.835  1.00  0.00    -0.508 OA
ATOM     26  H   UNL     1      24.372 -14.210  17.577  1.00  0.00    +0.293 HD
ENDBRANCH  21  25
ENDBRANCH   1  12
BRANCH   7  27
ATOM     27  N   UNL     1      27.515  -5.848  21.305  1.00  0.00    -0.353 N 
ATOM     28  C   UNL     1      27.661  -5.385  19.903  1.00  0.00    +0.118 C 
ATOM     29  C   UNL     1      27.763  -4.773  22.288  1.00  0.00    +0.153 C 
ATOM     30  C   UNL     1      28.742  -4.302  19.771  1.00  0.00    +0.024 C 
ATOM     31  C   UNL     1      29.246  -4.342  22.217  1.00  0.00    +0.088 C 
ATOM     32  C   UNL     1      29.843  -4.477  20.810  1.00  0.00    +0.039 C 
ATOM     33  C   UNL     1      30.161  -4.867  23.343  1.00  0.00    +0.066 C 
ATOM     34  O   UNL     1      29.402  -2.975  22.707  1.00  0.00    -0.373 OA
ATOM     35  C   UNL     1      30.084  -3.447  23.892  1.00  0.00    +0.164 C 
ENDBRANCH   7  27
BRANCH   9  36
ATOM     36  O   UNL     1      22.988  -5.503  22.366  1.00  0.00    -0.461 OA
BRANCH  36  37
ATOM     37  C   UNL     1      23.451  -4.346  23.068  1.00  0.00    +0.255 C 
BRANCH  37  38
ATOM     38  C   UNL     1      22.266  -3.404  23.391  1.00  0.00    +0.058 C 
ATOM     39  C   UNL     1      20.914  -4.098  23.097  1.00  0.00    +0.027 C 
ATOM     40  N   UNL     1      22.242  -3.048  24.845  1.00  0.00    -0.291 NA
ATOM     41  C   UNL     1      22.415  -2.068  22.652  1.00  0.00    +0.065 C 
ATOM     42  C   UNL     1      20.122  -4.019  24.391  1.00  0.00    +0.018 C 
ATOM     43  C   UNL     1      21.197  -3.886  25.449  1.00  0.00    +0.085 C 
ATOM     44  C   UNL     1      21.912  -1.603  24.934  1.00  0.00    +0.123 C 
ATOM     45  C   UNL     1      21.674  -1.086  23.524  1.00  0.00    +0.182 C 
ATOM     46  F   UNL     1      20.345  -1.140  23.234  1.00  0.00    -0.246 F 
ENDBRANCH  37  38
ENDBRANCH  36  37
ENDBRANCH   9  36
TORSDOF 7
ENDMDL
MODEL 8
REMARK VINA RESULT:    -8.218      5.530     10.187
REMARK INTER + INTRA:         -13.012
REMARK INTER:                 -11.780
REMARK INTRA:                  -1.233
REMARK UNBOUND:                -1.672
REMARK SMILES CCc1c(F)ccc2cc(O)cc(-c3ncc4c(N5CCC[C@]6(CCO6)C5)nc(OC[C@@]56CCCN5C[C@H](F)C6)nc4c3F)c12
REMARK SMILES IDX 14 1 43 2 42 3 17 4 16 5 15 6 18 7 28 8 29 9 41 10 44 11
REMARK SMILES IDX 13 12 3 13 4 14 45 15 6 16 8 17 7 18 9 19 12 20 10 21 5 22
REMARK SMILES IDX 2 23 1 24 11 25 19 27 20 28 27 29 21 30 23 31 22 32 24 33
REMARK SMILES IDX 26 34 25 35 30 36 31 37 32 38 33 39 36 40 40 41 34 42 35 43
REMARK SMILES IDX 37 44 38 45 39 46
REMARK H PARENT 11 26
ROOT
ATOM      1  C   UNL     1      25.285  -3.778  23.018  1.00  0.00    +0.109 A 
ATOM      2  C   UNL     1      25.847  -4.783  22.232  1.00  0.00    +0.176 A 
ATOM      3  C   UNL     1      27.224  -4.983  22.218  1.00  0.00    +0.119 A 
ATOM      4  C   UNL     1      28.014  -4.147  23.005  1.00  0.00    +0.065 A 
ATOM      5  C   UNL     1      27.377  -3.133  23.734  1.00  0.00    +0.126 A 
ATOM      6  N   UNL     1      26.041  -2.930  23.754  1.00  0.00    -0.252 NA
ATOM      7  C   UNL     1      29.401  -4.378  22.975  1.00  0.00    +0.145 A 
ATOM      8  N   UNL     1      29.936  -5.336  22.202  1.00  0.00    -0.177 NA
ATOM      9  C   UNL     1      29.089  -6.088  21.498  1.00  0.00    +0.319 A 
ATOM     10  N   UNL     1      27.760  -5.951  21.462  1.00  0.00    -0.192 NA
ATOM     11  F   UNL     1      25.053  -5.568  21.482  1.00  0.00    -0.202 F 
ENDROOT
BRANCH   1  12
ATOM     12  C   UNL     1      23.843  -3.507  23.017  1.00  0.00    +0.015 A 
ATOM     13  C   UNL     1      23.898  -0.981  22.354  1.00  0.00    -0.004 A 
ATOM     14  C   UNL     1      23.136   0.189  22.159  1.00  0.00    +0.127 A 
ATOM     15  C   UNL     1      23.247  -2.212  22.750  1.00  0.00    -0.002 A 
ATOM     16  C   UNL     1      21.767   0.217  22.334  1.00  0.00    +0.040 A 
ATOM     17  C   UNL     1      21.822  -2.144  22.892  1.00  0.00    -0.014 A 
ATOM     18  C   UNL     1      21.116  -0.949  22.694  1.00  0.00    +0.012 A 
ATOM     19  C   UNL     1      21.063  -3.272  23.232  1.00  0.00    +0.055 A 
ATOM     20  C   UNL     1      23.032  -4.623  23.338  1.00  0.00    +0.057 A 
ATOM     21  C   UNL     1      21.662  -4.497  23.440  1.00  0.00    +0.116 A 
ATOM     22  F   UNL     1      23.740   1.326  21.776  1.00  0.00    -0.207 F 
BRANCH  13  23
ATOM     23  C   UNL     1      25.373  -0.832  22.041  1.00  0.00    +0.036 C 
ATOM     24  C   UNL     1      25.687  -1.188  20.594  1.00  0.00    +0.009 C 
ENDBRANCH  13  23
BRANCH  21  25
ATOM     25  O   UNL     1      20.865  -5.556  23.753  1.00  0.00    -0.508 OA
ATOM     26  H   UNL     1      20.013  -5.455  23.297  1.00  0.00    +0.293 HD
ENDBRANCH  21  25
ENDBRANCH   1  12
BRANCH   7  27
ATOM     27  N   UNL     1      30.263  -3.594  23.783  1.00  0.00    -0.353 N 
ATOM     28  C   UNL     1      31.068  -4.472  24.669  1.00  0.00    +0.118 C 
ATOM     29  C   UNL     1      31.097  -2.672  22.986  1.00  0.00    +0.153 C 
ATOM     30  C   UNL     1      32.331  -3.761  25.178  1.00  0.00    +0.024 C 
ATOM     31  C   UNL     1      31.797  -1.665  23.926  1.00  0.00    +0.088 C 
ATOM     32  C   UNL     1      32.116  -2.257  25.306  1.00  0.00    +0.039 C 
ATOM     33  C   UNL     1      31.194  -0.246  23.975  1.00  0.00    +0.066 C 
ATOM     34  O   UNL     1      33.010  -1.146  23.303  1.00  0.00    -0.373 OA
ATOM     35  C   UNL     1      32.401   0.155  23.134  1.00  0.00    +0.164 C 
ENDBRANCH   7  27
BRANCH   9  36
ATOM     36  O   UNL     1      29.673  -7.006  20.661  1.00  0.00    -0.461 OA
BRANCH  36  37
ATOM     37  C   UNL     1      29.228  -6.868  19.308  1.00  0.00    +0.255 C 
BRANCH  37  38
ATOM     38  C   UNL     1      30.440  -6.700  18.359  1.00  0.00    +0.058 C 
ATOM     39  C   UNL     1      29.971  -6.448  16.906  1.00  0.00    +0.027 C 
ATOM     40  N   UNL     1      31.262  -5.509  18.743  1.00  0.00    -0.291 NA
ATOM     41  C   UNL     1      31.390  -7.899  18.473  1.00  0.00    +0.065 C 
ATOM     42  C   UNL     1      30.639  -5.152  16.479  1.00  0.00    +0.018 C 
ATOM     43  C   UNL     1      30.903  -4.447  17.793  1.00  0.00    +0.085 C 
ATOM     44  C   UNL     1      32.688  -5.905  18.616  1.00  0.00    +0.123 C 
ATOM     45  C   UNL     1      32.735  -7.333  18.094  1.00  0.00    +0.182 C 
ATOM     46  F   UNL     1      32.853  -7.321  16.738  1.00  0.00    -0.246 F 
ENDBRANCH  37  38
ENDBRANCH  36  37
ENDBRANCH   9  36
TORSDOF 7
ENDMDL
MODEL 9
REMARK VINA RESULT:    -8.206      5.788     10.775
REMARK INTER + INTRA:         -12.997
REMARK INTER:                 -11.780
REMARK INTRA:                  -1.217
REMARK UNBOUND:                -1.672
REMARK SMILES CCc1c(F)ccc2cc(O)cc(-c3ncc4c(N5CCC[C@]6(CCO6)C5)nc(OC[C@@]56CCCN5C[C@H](F)C6)nc4c3F)c12
REMARK SMILES IDX 14 1 43 2 42 3 17 4 16 5 15 6 18 7 28 8 29 9 41 10 44 11
REMARK SMILES IDX 13 12 3 13 4 14 45 15 6 16 8 17 7 18 9 19 12 20 10 21 5 22
REMARK SMILES IDX 2 23 1 24 11 25 19 27 20 28 27 29 21 30 23 31 22 32 24 33
REMARK SMILES IDX 26 34 25 35 30 36 31 37 32 38 33 39 36 40 40 41 34 42 35 43
REMARK SMILES IDX 37 44 38 45 39 46
REMARK H PARENT 11 26
ROOT
ATOM      1  C   UNL     1      26.603  -2.721  22.292  1.00  0.00    +0.109 A 
ATOM      2  C   UNL     1      27.045  -3.567  21.275  1.00  0.00    +0.176 A 
ATOM      3  C   UNL     1      27.925  -4.607  21.554  1.00  0.00    +0.119 A 
ATOM      4  C   UNL     1      28.352  -4.767  22.871  1.00  0.00    +0.065 A 
ATOM      5  C   UNL     1      27.896  -3.850  23.827  1.00  0.00    +0.126 A 
ATOM      6  N   UNL     1      27.040  -2.836  23.567  1.00  0.00    -0.252 NA
ATOM      7  C   UNL     1      29.237  -5.831  23.122  1.00  0.00    +0.145 A 
ATOM      8  N   UNL     1      29.672  -6.630  22.135  1.00  0.00    -0.177 NA
ATOM      9  C   UNL     1      29.192  -6.397  20.913  1.00  0.00    +0.319 A 
ATOM     10  N   UNL     1      28.347  -5.419  20.574  1.00  0.00    -0.192 NA
ATOM     11  F   UNL     1      26.615  -3.379  20.015  1.00  0.00    -0.202 F 
ENDROOT
BRANCH   1  12
ATOM     12  C   UNL     1      25.714  -1.584  22.024  1.00  0.00    +0.015 A 
ATOM     13  C   UNL     1      23.458  -2.624  22.831  1.00  0.00    -0.004 A 
ATOM     14  C   UNL     1      22.064  -2.442  22.939  1.00  0.00    +0.127 A 
ATOM     15  C   UNL     1      24.281  -1.588  22.242  1.00  0.00    -0.002 A 
ATOM     16  C   UNL     1      21.432  -1.297  22.499  1.00  0.00    +0.040 A 
ATOM     17  C   UNL     1      23.587  -0.405  21.825  1.00  0.00    -0.014 A 
ATOM     18  C   UNL     1      22.196  -0.282  21.949  1.00  0.00    +0.012 A 
ATOM     19  C   UNL     1      24.266   0.690  21.276  1.00  0.00    +0.055 A 
ATOM     20  C   UNL     1      26.360  -0.445  21.483  1.00  0.00    +0.057 A 
ATOM     21  C   UNL     1      25.637   0.672  21.120  1.00  0.00    +0.116 A 
ATOM     22  F   UNL     1      21.305  -3.397  23.501  1.00  0.00    -0.207 F 
BRANCH  13  23
ATOM     23  C   UNL     1      23.974  -3.913  23.438  1.00  0.00    +0.036 C 
ATOM     24  C   UNL     1      23.713  -5.111  22.537  1.00  0.00    +0.009 C 
ENDBRANCH  13  23
BRANCH  21  25
ATOM     25  O   UNL     1      26.237   1.775  20.593  1.00  0.00    -0.508 OA
ATOM     26  H   UNL     1      25.562   2.456  20.434  1.00  0.00    +0.293 HD
ENDBRANCH  21  25
ENDBRANCH   1  12
BRANCH   7  27
ATOM     27  N   UNL     1      29.680  -6.082  24.446  1.00  0.00    -0.353 N 
ATOM     28  C   UNL     1      30.635  -5.029  24.872  1.00  0.00    +0.118 C 
ATOM     29  C   UNL     1      28.556  -6.248  25.391  1.00  0.00    +0.153 C 
ATOM     30  C   UNL     1      30.751  -4.953  26.402  1.00  0.00    +0.024 C 
ATOM     31  C   UNL     1      29.091  -6.790  26.736  1.00  0.00    +0.088 C 
ATOM     32  C   UNL     1      30.515  -6.311  27.052  1.00  0.00    +0.039 C 
ATOM     33  C   UNL     1      28.857  -8.290  27.007  1.00  0.00    +0.066 C 
ATOM     34  O   UNL     1      28.183  -6.436  27.823  1.00  0.00    -0.373 OA
ATOM     35  C   UNL     1      27.774  -7.816  27.969  1.00  0.00    +0.164 C 
ENDBRANCH   7  27
BRANCH   9  36
ATOM     36  O   UNL     1      29.714  -7.182  19.915  1.00  0.00    -0.461 OA
BRANCH  36  37
ATOM     37  C   UNL     1      31.049  -6.803  19.568  1.00  0.00    +0.255 C 
BRANCH  37  38
ATOM     38  C   UNL     1      31.054  -6.006  18.242  1.00  0.00    +0.058 C 
ATOM     39  C   UNL     1      31.161  -4.486  18.512  1.00  0.00    +0.027 C 
ATOM     40  N   UNL     1      32.242  -6.364  17.403  1.00  0.00    -0.291 NA
ATOM     41  C   UNL     1      29.834  -6.368  17.385  1.00  0.00    +0.065 C 
ATOM     42  C   UNL     1      32.369  -4.013  17.722  1.00  0.00    +0.018 C 
ATOM     43  C   UNL     1      33.205  -5.267  17.579  1.00  0.00    +0.085 C 
ATOM     44  C   UNL     1      31.770  -6.464  15.999  1.00  0.00    +0.123 C 
ATOM     45  C   UNL     1      30.292  -6.108  15.972  1.00  0.00    +0.182 C 
ATOM     46  F   UNL     1      30.145  -4.784  15.688  1.00  0.00    -0.246 F 
ENDBRANCH  37  38
ENDBRANCH  36  37
ENDBRANCH   9  36
TORSDOF 7
ENDMDL
