MODEL 1
REMARK VINA RESULT:   -10.828      0.000      0.000
REMARK INTER + INTRA:         -17.427
REMARK INTER:                 -15.892
REMARK INTRA:                  -1.535
REMARK UNBOUND:                -1.535
REMARK SMILES C=C(F)C(=O)N1CCN(c2nc(OC[C@@H]3CCCN3C)nc3c2CCN(c2cccc4cccc(Cl)c24)C3)C[C@@H]1CC#N
REMARK SMILES IDX 12 1 21 2 22 3 23 4 24 5 25 6 26 7 38 8 10 9 11 10 13 11
REMARK SMILES IDX 14 12 15 13 16 14 19 15 17 16 18 17 20 18 9 19 8 20 39 21
REMARK SMILES IDX 7 22 40 23 6 24 41 25 42 26 43 27 4 28 5 29 2 30 1 31 3 32
REMARK SMILES IDX 27 33 28 34 37 35 29 36 31 37 35 38 30 39 32 40 34 41 33 42
REMARK SMILES IDX 36 43
REMARK H PARENT
ROOT
ATOM      1  C   UNL     1      12.841  -9.011  22.438  1.00  0.00    +0.318 A 
ATOM      2  N   UNL     1      13.938  -8.943  23.194  1.00  0.00    -0.198 NA
ATOM      3  C   UNL     1      15.053  -9.501  22.679  1.00  0.00    +0.072 A 
ATOM      4  C   UNL     1      15.062 -10.152  21.449  1.00  0.00    +0.020 A 
ATOM      5  C   UNL     1      16.330 -10.752  20.897  1.00  0.00    +0.063 C 
ATOM      6  C   UNL     1      17.390 -10.981  21.979  1.00  0.00    +0.122 C 
ATOM      7  N   UNL     1      17.522  -9.748  22.760  1.00  0.00    -0.365 N 
ATOM      8  C   UNL     1      16.307  -9.421  23.534  1.00  0.00    +0.173 C 
ATOM      9  C   UNL     1      13.859 -10.170  20.750  1.00  0.00    +0.139 A 
ATOM     10  N   UNL     1      12.745  -9.613  21.248  1.00  0.00    -0.178 NA
ENDROOT
BRANCH   1  11
ATOM     11  O   UNL     1      11.680  -8.415  22.868  1.00  0.00    -0.462 OA
BRANCH  11  12
ATOM     12  C   UNL     1      10.655  -8.326  21.872  1.00  0.00    +0.252 C 
BRANCH  12  13
ATOM     13  C   UNL     1       9.429  -7.536  22.376  1.00  0.00    +0.094 C 
ATOM     14  C   UNL     1       9.712  -6.605  23.557  1.00  0.00    +0.024 C 
ATOM     15  N   UNL     1       8.255  -8.335  22.817  1.00  0.00    -0.300 NA
ATOM     16  C   UNL     1       8.356  -6.388  24.216  1.00  0.00    +0.017 C 
ATOM     17  C   UNL     1       7.408  -7.352  23.513  1.00  0.00    +0.084 C 
ATOM     18  C   UNL     1       8.599  -9.447  23.705  1.00  0.00    +0.105 C 
ENDBRANCH  12  13
ENDBRANCH  11  12
ENDBRANCH   1  11
BRANCH   9  19
ATOM     19  N   UNL     1      13.809 -10.742  19.467  1.00  0.00    -0.352 N 
ATOM     20  C   UNL     1      14.157 -12.177  19.440  1.00  0.00    +0.139 C 
ATOM     21  C   UNL     1      12.578 -10.359  18.739  1.00  0.00    +0.144 C 
ATOM     22  C   UNL     1      13.739 -12.814  18.109  1.00  0.00    +0.142 C 
ATOM     23  C   UNL     1      11.599 -11.542  18.475  1.00  0.00    +0.119 C 
ATOM     24  N   UNL     1      12.297 -12.696  17.837  1.00  0.00    -0.329 N 
BRANCH  23  25
ATOM     25  C   UNL     1      10.838 -11.978  19.744  1.00  0.00    +0.147 C 
ATOM     26  C   UNL     1       9.570 -11.250  19.879  1.00  0.00    +0.064 C 
ATOM     27  N   UNL     1       8.567 -10.671  19.955  1.00  0.00    -0.198 NA
ENDBRANCH  23  25
BRANCH  24  28
ATOM     28  C   UNL     1      11.781 -13.531  16.853  1.00  0.00    +0.282 C 
ATOM     29  O   UNL     1      12.495 -14.351  16.272  1.00  0.00    -0.266 OA
BRANCH  28  30
ATOM     30  C   UNL     1      10.331 -13.440  16.484  1.00  0.00    +0.180 C 
ATOM     31  C   UNL     1       9.419 -14.294  16.958  1.00  0.00    +0.057 C 
ATOM     32  F   UNL     1       9.935 -12.438  15.678  1.00  0.00    -0.202 F 
ENDBRANCH  28  30
ENDBRANCH  24  28
ENDBRANCH   9  19
BRANCH   7  33
ATOM     33  C   UNL     1      18.696  -9.611  23.529  1.00  0.00    +0.046 A 
ATOM     34  C   UNL     1      19.083 -10.661  24.387  1.00  0.00    +0.026 A 
ATOM     35  C   UNL     1      19.472  -8.393  23.478  1.00  0.00    +0.024 A 
ATOM     36  C   UNL     1      20.203 -10.553  25.199  1.00  0.00    +0.003 A 
ATOM     37  C   UNL     1      20.609  -8.317  24.335  1.00  0.00    -0.015 A 
ATOM     38  C   UNL     1      19.241  -7.241  22.652  1.00  0.00    +0.050 A 
ATOM     39  C   UNL     1      20.955  -9.388  25.173  1.00  0.00    +0.009 A 
ATOM     40  C   UNL     1      21.421  -7.171  24.369  1.00  0.00    +0.009 A 
ATOM     41  C   UNL     1      20.068  -6.108  22.706  1.00  0.00    +0.021 A 
ATOM     42  C   UNL     1      21.154  -6.072  23.564  1.00  0.00    +0.002 A 
ATOM     43 Cl   UNL     1      17.953  -7.121  21.490  1.00  0.00    -0.084 Cl
ENDBRANCH   7  33
TORSDOF 8
ENDMDL
MODEL 2
REMARK VINA RESULT:    -9.985      2.070      5.505
REMARK INTER + INTRA:         -16.189
REMARK INTER:                 -14.806
REMARK INTRA:                  -1.383
REMARK UNBOUND:                -1.535
REMARK SMILES C=C(F)C(=O)N1CCN(c2nc(OC[C@@H]3CCCN3C)nc3c2CCN(c2cccc4cccc(Cl)c24)C3)C[C@@H]1CC#N
REMARK SMILES IDX 12 1 21 2 22 3 23 4 24 5 25 6 26 7 38 8 10 9 11 10 13 11
REMARK SMILES IDX 14 12 15 13 16 14 19 15 17 16 18 17 20 18 9 19 8 20 39 21
REMARK SMILES IDX 7 22 40 23 6 24 41 25 42 26 43 27 4 28 5 29 2 30 1 31 3 32
REMARK SMILES IDX 27 33 28 34 37 35 29 36 31 37 35 38 30 39 32 40 34 41 33 42
REMARK SMILES IDX 36 43
REMARK H PARENT
ROOT
ATOM      1  C   UNL     1      14.432 -10.878  19.294  1.00  0.00    +0.318 A 
ATOM      2  N   UNL     1      15.582 -10.302  19.651  1.00  0.00    -0.198 NA
ATOM      3  C   UNL     1      15.574  -9.630  20.820  1.00  0.00    +0.072 A 
ATOM      4  C   UNL     1      14.428  -9.500  21.599  1.00  0.00    +0.020 A 
ATOM      5  C   UNL     1      14.459  -8.753  22.908  1.00  0.00    +0.063 C 
ATOM      6  C   UNL     1      15.663  -7.814  23.020  1.00  0.00    +0.122 C 
ATOM      7  N   UNL     1      16.867  -8.566  22.653  1.00  0.00    -0.365 N 
ATOM      8  C   UNL     1      16.882  -8.976  21.234  1.00  0.00    +0.173 C 
ATOM      9  C   UNL     1      13.283 -10.134  21.126  1.00  0.00    +0.139 A 
ATOM     10  N   UNL     1      13.280 -10.811  19.968  1.00  0.00    -0.178 NA
ENDROOT
BRANCH   1  11
ATOM     11  O   UNL     1      14.375 -11.629  18.145  1.00  0.00    -0.462 OA
BRANCH  11  12
ATOM     12  C   UNL     1      13.727 -12.897  18.297  1.00  0.00    +0.252 C 
BRANCH  12  13
ATOM     13  C   UNL     1      12.591 -13.090  17.270  1.00  0.00    +0.094 C 
ATOM     14  C   UNL     1      11.315 -12.303  17.577  1.00  0.00    +0.024 C 
ATOM     15  N   UNL     1      12.116 -14.482  17.053  1.00  0.00    -0.300 NA
ATOM     16  C   UNL     1      10.214 -13.037  16.822  1.00  0.00    +0.017 C 
ATOM     17  C   UNL     1      10.867 -14.306  16.291  1.00  0.00    +0.084 C 
ATOM     18  C   UNL     1      11.871 -15.221  18.291  1.00  0.00    +0.105 C 
ENDBRANCH  12  13
ENDBRANCH  11  12
ENDBRANCH   1  11
BRANCH   9  19
ATOM     19  N   UNL     1      12.107 -10.112  21.896  1.00  0.00    -0.352 N 
ATOM     20  C   UNL     1      11.724  -8.764  22.360  1.00  0.00    +0.139 C 
ATOM     21  C   UNL     1      11.028 -10.917  21.280  1.00  0.00    +0.144 C 
ATOM     22  C   UNL     1      10.278  -8.754  22.869  1.00  0.00    +0.142 C 
ATOM     23  C   UNL     1       9.813 -10.079  20.782  1.00  0.00    +0.119 C 
ATOM     24  N   UNL     1       9.302  -9.172  21.849  1.00  0.00    -0.329 N 
BRANCH  23  25
ATOM     25  C   UNL     1      10.117  -9.303  19.483  1.00  0.00    +0.147 C 
ATOM     26  C   UNL     1       8.882  -8.832  18.844  1.00  0.00    +0.064 C 
ATOM     27  N   UNL     1       7.893  -8.458  18.367  1.00  0.00    -0.198 NA
ENDBRANCH  23  25
BRANCH  24  28
ATOM     28  C   UNL     1       7.970  -8.862  22.101  1.00  0.00    +0.282 C 
ATOM     29  O   UNL     1       7.629  -7.720  22.416  1.00  0.00    -0.266 OA
BRANCH  28  30
ATOM     30  C   UNL     1       6.923  -9.928  21.989  1.00  0.00    +0.180 C 
ATOM     31  C   UNL     1       6.455 -10.583  23.057  1.00  0.00    +0.057 C 
ATOM     32  F   UNL     1       6.412 -10.203  20.775  1.00  0.00    -0.202 F 
ENDBRANCH  28  30
ENDBRANCH  24  28
ENDBRANCH   9  19
BRANCH   7  33
ATOM     33  C   UNL     1      18.101  -8.019  23.062  1.00  0.00    +0.046 A 
ATOM     34  C   UNL     1      18.410  -6.687  22.721  1.00  0.00    +0.026 A 
ATOM     35  C   UNL     1      19.060  -8.825  23.783  1.00  0.00    +0.024 A 
ATOM     36  C   UNL     1      19.631  -6.121  23.060  1.00  0.00    +0.003 A 
ATOM     37  C   UNL     1      20.307  -8.210  24.102  1.00  0.00    -0.015 A 
ATOM     38  C   UNL     1      18.906 -10.181  24.229  1.00  0.00    +0.050 A 
ATOM     39  C   UNL     1      20.570  -6.880  23.741  1.00  0.00    +0.009 A 
ATOM     40  C   UNL     1      21.311  -8.913  24.789  1.00  0.00    +0.009 A 
ATOM     41  C   UNL     1      19.925 -10.859  24.914  1.00  0.00    +0.021 A 
ATOM     42  C   UNL     1      21.126 -10.229  25.191  1.00  0.00    +0.002 A 
ATOM     43 Cl   UNL     1      17.458 -11.118  24.007  1.00  0.00    -0.084 Cl
ENDBRANCH   7  33
TORSDOF 8
ENDMDL
MODEL 3
REMARK VINA RESULT:    -9.613      1.498      2.239
REMARK INTER + INTRA:         -15.644
REMARK INTER:                 -14.503
REMARK INTRA:                  -1.141
REMARK UNBOUND:                -1.535
REMARK SMILES C=C(F)C(=O)N1CCN(c2nc(OC[C@@H]3CCCN3C)nc3c2CCN(c2cccc4cccc(Cl)c24)C3)C[C@@H]1CC#N
REMARK SMILES IDX 12 1 21 2 22 3 23 4 24 5 25 6 26 7 38 8 10 9 11 10 13 11
REMARK SMILES IDX 14 12 15 13 16 14 19 15 17 16 18 17 20 18 9 19 8 20 39 21
REMARK SMILES IDX 7 22 40 23 6 24 41 25 42 26 43 27 4 28 5 29 2 30 1 31 3 32
REMARK SMILES IDX 27 33 28 34 37 35 29 36 31 37 35 38 30 39 32 40 34 41 33 42
REMARK SMILES IDX 36 43
REMARK H PARENT
ROOT
ATOM      1  C   UNL     1      12.803  -8.439  22.120  1.00  0.00    +0.318 A 
ATOM      2  N   UNL     1      13.894  -8.038  22.775  1.00  0.00    -0.198 NA
ATOM      3  C   UNL     1      14.956  -8.868  22.729  1.00  0.00    +0.072 A 
ATOM      4  C   UNL     1      14.915 -10.097  22.076  1.00  0.00    +0.020 A 
ATOM      5  C   UNL     1      16.125 -10.994  22.033  1.00  0.00    +0.063 C 
ATOM      6  C   UNL     1      17.149 -10.652  23.120  1.00  0.00    +0.122 C 
ATOM      7  N   UNL     1      17.389  -9.207  23.085  1.00  0.00    -0.365 N 
ATOM      8  C   UNL     1      16.204  -8.414  23.468  1.00  0.00    +0.173 C 
ATOM      9  C   UNL     1      13.723 -10.417  21.435  1.00  0.00    +0.139 A 
ATOM     10  N   UNL     1      12.662  -9.597  21.467  1.00  0.00    -0.178 NA
ENDROOT
BRANCH   1  11
ATOM     11  O   UNL     1      11.699  -7.622  22.072  1.00  0.00    -0.462 OA
BRANCH  11  12
ATOM     12  C   UNL     1      10.446  -8.315  22.108  1.00  0.00    +0.252 C 
BRANCH  12  13
ATOM     13  C   UNL     1       9.345  -7.478  22.793  1.00  0.00    +0.094 C 
ATOM     14  C   UNL     1       9.775  -6.066  23.195  1.00  0.00    +0.024 C 
ATOM     15  N   UNL     1       8.752  -8.044  24.033  1.00  0.00    -0.300 NA
ATOM     16  C   UNL     1       8.799  -5.659  24.291  1.00  0.00    +0.017 C 
ATOM     17  C   UNL     1       7.995  -6.915  24.601  1.00  0.00    +0.084 C 
ATOM     18  C   UNL     1       9.744  -8.539  24.989  1.00  0.00    +0.105 C 
ENDBRANCH  12  13
ENDBRANCH  11  12
ENDBRANCH   1  11
BRANCH   9  19
ATOM     19  N   UNL     1      13.631 -11.606  20.689  1.00  0.00    -0.352 N 
ATOM     20  C   UNL     1      12.284 -11.863  20.142  1.00  0.00    +0.139 C 
ATOM     21  C   UNL     1      14.757 -11.751  19.738  1.00  0.00    +0.144 C 
ATOM     22  C   UNL     1      12.334 -12.951  19.063  1.00  0.00    +0.142 C 
ATOM     23  C   UNL     1      14.339 -11.674  18.239  1.00  0.00    +0.119 C 
ATOM     24  N   UNL     1      13.219 -12.612  17.937  1.00  0.00    -0.329 N 
BRANCH  23  25
ATOM     25  C   UNL     1      14.005 -10.237  17.787  1.00  0.00    +0.147 C 
ATOM     26  C   UNL     1      15.225  -9.485  17.470  1.00  0.00    +0.064 C 
ATOM     27  N   UNL     1      16.203  -8.916  17.212  1.00  0.00    -0.198 NA
ENDBRANCH  23  25
BRANCH  24  28
ATOM     28  C   UNL     1      13.058 -13.357  16.774  1.00  0.00    +0.282 C 
ATOM     29  O   UNL     1      13.905 -13.333  15.879  1.00  0.00    -0.266 OA
BRANCH  28  30
ATOM     30  C   UNL     1      11.837 -14.207  16.597  1.00  0.00    +0.180 C 
ATOM     31  C   UNL     1      10.730 -13.750  16.003  1.00  0.00    +0.057 C 
ATOM     32  F   UNL     1      11.877 -15.485  17.017  1.00  0.00    -0.202 F 
ENDBRANCH  28  30
ENDBRANCH  24  28
ENDBRANCH   9  19
BRANCH   7  33
ATOM     33  C   UNL     1      18.563  -8.747  23.717  1.00  0.00    +0.046 A 
ATOM     34  C   UNL     1      18.843  -9.162  25.035  1.00  0.00    +0.026 A 
ATOM     35  C   UNL     1      19.451  -7.826  23.043  1.00  0.00    +0.024 A 
ATOM     36  C   UNL     1      19.960  -8.699  25.715  1.00  0.00    +0.003 A 
ATOM     37  C   UNL     1      20.581  -7.365  23.779  1.00  0.00    -0.015 A 
ATOM     38  C   UNL     1      19.335  -7.321  21.704  1.00  0.00    +0.050 A 
ATOM     39  C   UNL     1      20.817  -7.806  25.090  1.00  0.00    +0.009 A 
ATOM     40  C   UNL     1      21.496  -6.459  23.218  1.00  0.00    +0.009 A 
ATOM     41  C   UNL     1      20.263  -6.415  21.167  1.00  0.00    +0.021 A 
ATOM     42  C   UNL     1      21.340  -5.982  21.923  1.00  0.00    +0.002 A 
ATOM     43 Cl   UNL     1      18.075  -7.780  20.597  1.00  0.00    -0.084 Cl
ENDBRANCH   7  33
TORSDOF 8
ENDMDL
MODEL 4
REMARK VINA RESULT:    -9.113      1.358      2.137
REMARK INTER + INTRA:         -14.910
REMARK INTER:                 -15.193
REMARK INTRA:                   0.283
REMARK UNBOUND:                -1.535
REMARK SMILES C=C(F)C(=O)N1CCN(c2nc(OC[C@@H]3CCCN3C)nc3c2CCN(c2cccc4cccc(Cl)c24)C3)C[C@@H]1CC#N
REMARK SMILES IDX 12 1 21 2 22 3 23 4 24 5 25 6 26 7 38 8 10 9 11 10 13 11
REMARK SMILES IDX 14 12 15 13 16 14 19 15 17 16 18 17 20 18 9 19 8 20 39 21
REMARK SMILES IDX 7 22 40 23 6 24 41 25 42 26 43 27 4 28 5 29 2 30 1 31 3 32
REMARK SMILES IDX 27 33 28 34 37 35 29 36 31 37 35 38 30 39 32 40 34 41 33 42
REMARK SMILES IDX 36 43
REMARK H PARENT
ROOT
ATOM      1  C   UNL     1      12.476  -9.313  22.344  1.00  0.00    +0.318 A 
ATOM      2  N   UNL     1      13.587  -8.809  22.883  1.00  0.00    -0.198 NA
ATOM      3  C   UNL     1      14.733  -9.033  22.208  1.00  0.00    +0.072 A 
ATOM      4  C   UNL     1      14.774  -9.784  21.037  1.00  0.00    +0.020 A 
ATOM      5  C   UNL     1      16.070 -10.004  20.300  1.00  0.00    +0.063 C 
ATOM      6  C   UNL     1      17.297  -9.753  21.182  1.00  0.00    +0.122 C 
ATOM      7  N   UNL     1      17.122  -8.461  21.854  1.00  0.00    -0.365 N 
ATOM      8  C   UNL     1      16.001  -8.456  22.815  1.00  0.00    +0.173 C 
ATOM      9  C   UNL     1      13.556 -10.269  20.570  1.00  0.00    +0.139 A 
ATOM     10  N   UNL     1      12.409 -10.047  21.229  1.00  0.00    -0.178 NA
ENDROOT
BRANCH   1  11
ATOM     11  O   UNL     1      11.261  -9.077  22.942  1.00  0.00    -0.462 OA
BRANCH  11  12
ATOM     12  C   UNL     1      10.531  -7.978  22.388  1.00  0.00    +0.252 C 
BRANCH  12  13
ATOM     13  C   UNL     1       9.678  -7.257  23.453  1.00  0.00    +0.094 C 
ATOM     14  C   UNL     1       9.797  -7.837  24.864  1.00  0.00    +0.024 C 
ATOM     15  N   UNL     1       8.213  -7.197  23.207  1.00  0.00    -0.300 NA
ATOM     16  C   UNL     1       8.530  -7.386  25.578  1.00  0.00    +0.017 C 
ATOM     17  C   UNL     1       7.664  -6.750  24.499  1.00  0.00    +0.084 C 
ATOM     18  C   UNL     1       7.630  -8.478  22.809  1.00  0.00    +0.105 C 
ENDBRANCH  12  13
ENDBRANCH  11  12
ENDBRANCH   1  11
BRANCH   9  19
ATOM     19  N   UNL     1      13.508 -10.971  19.352  1.00  0.00    -0.352 N 
ATOM     20  C   UNL     1      13.471 -12.439  19.512  1.00  0.00    +0.139 C 
ATOM     21  C   UNL     1      12.510 -10.395  18.422  1.00  0.00    +0.144 C 
ATOM     22  C   UNL     1      13.059 -13.118  18.201  1.00  0.00    +0.142 C 
ATOM     23  C   UNL     1      11.295 -11.326  18.133  1.00  0.00    +0.119 C 
ATOM     24  N   UNL     1      11.738 -12.687  17.715  1.00  0.00    -0.329 N 
BRANCH  23  25
ATOM     25  C   UNL     1      10.306 -11.396  19.315  1.00  0.00    +0.147 C 
ATOM     26  C   UNL     1       9.430 -10.218  19.344  1.00  0.00    +0.064 C 
ATOM     27  N   UNL     1       8.741  -9.284  19.337  1.00  0.00    -0.198 NA
ENDBRANCH  23  25
BRANCH  24  28
ATOM     28  C   UNL     1      11.140 -13.489  16.750  1.00  0.00    +0.282 C 
ATOM     29  O   UNL     1      10.369 -13.013  15.913  1.00  0.00    -0.266 OA
BRANCH  28  30
ATOM     30  C   UNL     1      11.430 -14.958  16.718  1.00  0.00    +0.180 C 
ATOM     31  C   UNL     1      10.775 -15.832  17.489  1.00  0.00    +0.057 C 
ATOM     32  F   UNL     1      12.355 -15.412  15.852  1.00  0.00    -0.202 F 
ENDBRANCH  28  30
ENDBRANCH  24  28
ENDBRANCH   9  19
BRANCH   7  33
ATOM     33  C   UNL     1      18.284  -7.866  22.388  1.00  0.00    +0.046 A 
ATOM     34  C   UNL     1      18.705  -6.614  21.894  1.00  0.00    +0.026 A 
ATOM     35  C   UNL     1      19.063  -8.547  23.397  1.00  0.00    +0.024 A 
ATOM     36  C   UNL     1      19.867  -6.012  22.354  1.00  0.00    +0.003 A 
ATOM     37  C   UNL     1      20.256  -7.899  23.835  1.00  0.00    -0.015 A 
ATOM     38  C   UNL     1      18.774  -9.805  24.026  1.00  0.00    +0.050 A 
ATOM     39  C   UNL     1      20.635  -6.654  23.313  1.00  0.00    +0.009 A 
ATOM     40  C   UNL     1      21.089  -8.485  24.803  1.00  0.00    +0.009 A 
ATOM     41  C   UNL     1      19.624 -10.367  24.990  1.00  0.00    +0.021 A 
ATOM     42  C   UNL     1      20.781  -9.711  25.376  1.00  0.00    +0.002 A 
ATOM     43 Cl   UNL     1      17.353 -10.752  23.698  1.00  0.00    -0.084 Cl
ENDBRANCH   7  33
TORSDOF 8
ENDMDL
MODEL 5
REMARK VINA RESULT:    -8.967      3.209      6.457
REMARK INTER + INTRA:         -14.696
REMARK INTER:                 -12.869
REMARK INTRA:                  -1.827
REMARK UNBOUND:                -1.535
REMARK SMILES C=C(F)C(=O)N1CCN(c2nc(OC[C@@H]3CCCN3C)nc3c2CCN(c2cccc4cccc(Cl)c24)C3)C[C@@H]1CC#N
REMARK SMILES IDX 12 1 21 2 22 3 23 4 24 5 25 6 26 7 38 8 10 9 11 10 13 11
REMARK SMILES IDX 14 12 15 13 16 14 19 15 17 16 18 17 20 18 9 19 8 20 39 21
REMARK SMILES IDX 7 22 40 23 6 24 41 25 42 26 43 27 4 28 5 29 2 30 1 31 3 32
REMARK SMILES IDX 27 33 28 34 37 35 29 36 31 37 35 38 30 39 32 40 34 41 33 42
REMARK SMILES IDX 36 43
REMARK H PARENT
ROOT
ATOM      1  C   UNL     1      12.060 -13.475  19.023  1.00  0.00    +0.318 A 
ATOM      2  N   UNL     1      13.276 -13.110  19.435  1.00  0.00    -0.198 NA
ATOM      3  C   UNL     1      13.690 -11.883  19.061  1.00  0.00    +0.072 A 
ATOM      4  C   UNL     1      12.920 -11.049  18.254  1.00  0.00    +0.020 A 
ATOM      5  C   UNL     1      13.408  -9.677  17.866  1.00  0.00    +0.063 C 
ATOM      6  C   UNL     1      14.922  -9.524  18.031  1.00  0.00    +0.122 C 
ATOM      7  N   UNL     1      15.290 -10.010  19.364  1.00  0.00    -0.365 N 
ATOM      8  C   UNL     1      15.071 -11.461  19.532  1.00  0.00    +0.173 C 
ATOM      9  C   UNL     1      11.672 -11.535  17.875  1.00  0.00    +0.139 A 
ATOM     10  N   UNL     1      11.246 -12.752  18.247  1.00  0.00    -0.178 NA
ENDROOT
BRANCH   1  11
ATOM     11  O   UNL     1      11.544 -14.688  19.411  1.00  0.00    -0.462 OA
BRANCH  11  12
ATOM     12  C   UNL     1      10.418 -15.127  18.644  1.00  0.00    +0.252 C 
BRANCH  12  13
ATOM     13  C   UNL     1      10.716 -16.434  17.880  1.00  0.00    +0.094 C 
ATOM     14  C   UNL     1      12.121 -16.996  18.103  1.00  0.00    +0.024 C 
ATOM     15  N   UNL     1      10.571 -16.391  16.401  1.00  0.00    -0.300 NA
ATOM     16  C   UNL     1      12.379 -17.891  16.897  1.00  0.00    +0.017 C 
ATOM     17  C   UNL     1      11.208 -17.643  15.955  1.00  0.00    +0.084 C 
ATOM     18  C   UNL     1      11.213 -15.232  15.780  1.00  0.00    +0.105 C 
ENDBRANCH  12  13
ENDBRANCH  11  12
ENDBRANCH   1  11
BRANCH   9  19
ATOM     19  N   UNL     1      10.807 -10.720  17.124  1.00  0.00    -0.352 N 
ATOM     20  C   UNL     1       9.771 -11.471  16.387  1.00  0.00    +0.139 C 
ATOM     21  C   UNL     1      10.331  -9.554  17.903  1.00  0.00    +0.144 C 
ATOM     22  C   UNL     1       8.664 -10.532  15.895  1.00  0.00    +0.142 C 
ATOM     23  C   UNL     1       8.806  -9.577  18.219  1.00  0.00    +0.119 C 
ATOM     24  N   UNL     1       7.997  -9.801  16.986  1.00  0.00    -0.329 N 
BRANCH  23  25
ATOM     25  C   UNL     1       8.442 -10.594  19.321  1.00  0.00    +0.147 C 
ATOM     26  C   UNL     1       9.382 -10.516  20.446  1.00  0.00    +0.064 C 
ATOM     27  N   UNL     1      10.130 -10.424  21.328  1.00  0.00    -0.198 NA
ENDBRANCH  23  25
BRANCH  24  28
ATOM     28  C   UNL     1       6.776  -9.210  16.681  1.00  0.00    +0.282 C 
ATOM     29  O   UNL     1       5.718  -9.830  16.808  1.00  0.00    -0.266 OA
BRANCH  28  30
ATOM     30  C   UNL     1       6.735  -7.796  16.190  1.00  0.00    +0.180 C 
ATOM     31  C   UNL     1       6.593  -7.494  14.895  1.00  0.00    +0.057 C 
ATOM     32  F   UNL     1       6.804  -6.799  17.092  1.00  0.00    -0.202 F 
ENDBRANCH  28  30
ENDBRANCH  24  28
ENDBRANCH   9  19
BRANCH   7  33
ATOM     33  C   UNL     1      16.544  -9.600  19.861  1.00  0.00    +0.046 A 
ATOM     34  C   UNL     1      17.664  -9.622  19.005  1.00  0.00    +0.026 A 
ATOM     35  C   UNL     1      16.696  -9.204  21.243  1.00  0.00    +0.024 A 
ATOM     36  C   UNL     1      18.928  -9.274  19.462  1.00  0.00    +0.003 A 
ATOM     37  C   UNL     1      18.012  -8.864  21.676  1.00  0.00    -0.015 A 
ATOM     38  C   UNL     1      15.669  -9.101  22.242  1.00  0.00    +0.050 A 
ATOM     39  C   UNL     1      19.096  -8.902  20.787  1.00  0.00    +0.009 A 
ATOM     40  C   UNL     1      18.266  -8.479  23.003  1.00  0.00    +0.009 A 
ATOM     41  C   UNL     1      15.950  -8.714  23.561  1.00  0.00    +0.021 A 
ATOM     42  C   UNL     1      17.246  -8.407  23.942  1.00  0.00    +0.002 A 
ATOM     43 Cl   UNL     1      13.984  -9.409  21.940  1.00  0.00    -0.084 Cl
ENDBRANCH   7  33
TORSDOF 8
ENDMDL
MODEL 6
REMARK VINA RESULT:    -8.869      3.454      9.435
REMARK INTER + INTRA:         -14.552
REMARK INTER:                 -12.421
REMARK INTRA:                  -2.131
REMARK UNBOUND:                -1.535
REMARK SMILES C=C(F)C(=O)N1CCN(c2nc(OC[C@@H]3CCCN3C)nc3c2CCN(c2cccc4cccc(Cl)c24)C3)C[C@@H]1CC#N
REMARK SMILES IDX 12 1 21 2 22 3 23 4 24 5 25 6 26 7 38 8 10 9 11 10 13 11
REMARK SMILES IDX 14 12 15 13 16 14 19 15 17 16 18 17 20 18 9 19 8 20 39 21
REMARK SMILES IDX 7 22 40 23 6 24 41 25 42 26 43 27 4 28 5 29 2 30 1 31 3 32
REMARK SMILES IDX 27 33 28 34 37 35 29 36 31 37 35 38 30 39 32 40 34 41 33 42
REMARK SMILES IDX 36 43
REMARK H PARENT
ROOT
ATOM      1  C   UNL     1      10.951  -9.851  18.455  1.00  0.00    +0.318 A 
ATOM      2  N   UNL     1      10.187 -10.868  18.051  1.00  0.00    -0.198 NA
ATOM      3  C   UNL     1      10.831 -12.015  17.754  1.00  0.00    +0.072 A 
ATOM      4  C   UNL     1      12.217 -12.132  17.818  1.00  0.00    +0.020 A 
ATOM      5  C   UNL     1      12.903 -13.434  17.492  1.00  0.00    +0.063 C 
ATOM      6  C   UNL     1      12.016 -14.375  16.671  1.00  0.00    +0.122 C 
ATOM      7  N   UNL     1      10.706 -14.457  17.324  1.00  0.00    -0.365 N 
ATOM      8  C   UNL     1       9.966 -13.179  17.298  1.00  0.00    +0.173 C 
ATOM      9  C   UNL     1      12.913 -11.005  18.243  1.00  0.00    +0.139 A 
ATOM     10  N   UNL     1      12.284  -9.860  18.548  1.00  0.00    -0.178 NA
ENDROOT
BRANCH   1  11
ATOM     11  O   UNL     1      10.363  -8.667  18.831  1.00  0.00    -0.462 OA
BRANCH  11  12
ATOM     12  C   UNL     1       9.443  -8.783  19.923  1.00  0.00    +0.252 C 
BRANCH  12  13
ATOM     13  C   UNL     1       9.983  -8.111  21.204  1.00  0.00    +0.094 C 
ATOM     14  C   UNL     1      10.922  -8.987  22.035  1.00  0.00    +0.024 C 
ATOM     15  N   UNL     1       8.972  -7.632  22.182  1.00  0.00    -0.300 NA
ATOM     16  C   UNL     1      10.872  -8.392  23.436  1.00  0.00    +0.017 C 
ATOM     17  C   UNL     1       9.767  -7.344  23.389  1.00  0.00    +0.084 C 
ATOM     18  C   UNL     1       7.923  -8.609  22.473  1.00  0.00    +0.105 C 
ENDBRANCH  12  13
ENDBRANCH  11  12
ENDBRANCH   1  11
BRANCH   9  19
ATOM     19  N   UNL     1      14.308 -11.070  18.407  1.00  0.00    -0.352 N 
ATOM     20  C   UNL     1      15.012  -9.829  18.023  1.00  0.00    +0.139 C 
ATOM     21  C   UNL     1      14.685 -11.650  19.716  1.00  0.00    +0.144 C 
ATOM     22  C   UNL     1      16.449  -9.832  18.556  1.00  0.00    +0.142 C 
ATOM     23  C   UNL     1      15.381 -10.646  20.682  1.00  0.00    +0.119 C 
ATOM     24  N   UNL     1      16.525  -9.956  20.021  1.00  0.00    -0.329 N 
BRANCH  23  25
ATOM     25  C   UNL     1      14.394  -9.633  21.299  1.00  0.00    +0.147 C 
ATOM     26  C   UNL     1      14.804  -9.251  22.655  1.00  0.00    +0.064 C 
ATOM     27  N   UNL     1      15.158  -8.954  23.720  1.00  0.00    -0.198 NA
ENDBRANCH  23  25
BRANCH  24  28
ATOM     28  C   UNL     1      17.738  -9.619  20.610  1.00  0.00    +0.282 C 
ATOM     29  O   UNL     1      18.582 -10.479  20.872  1.00  0.00    -0.266 OA
BRANCH  28  30
ATOM     30  C   UNL     1      18.035  -8.187  20.938  1.00  0.00    +0.180 C 
ATOM     31  C   UNL     1      18.303  -7.781  22.183  1.00  0.00    +0.057 C 
ATOM     32  F   UNL     1      18.070  -7.292  19.934  1.00  0.00    -0.202 F 
ENDBRANCH  28  30
ENDBRANCH  24  28
ENDBRANCH   9  19
BRANCH   7  33
ATOM     33  C   UNL     1       9.891 -15.551  16.967  1.00  0.00    +0.046 A 
ATOM     34  C   UNL     1       9.193 -15.518  15.742  1.00  0.00    +0.026 A 
ATOM     35  C   UNL     1       9.734 -16.675  17.862  1.00  0.00    +0.024 A 
ATOM     36  C   UNL     1       8.342 -16.549  15.370  1.00  0.00    +0.003 A 
ATOM     37  C   UNL     1       8.842 -17.708  17.448  1.00  0.00    -0.015 A 
ATOM     38  C   UNL     1      10.380 -16.885  19.127  1.00  0.00    +0.050 A 
ATOM     39  C   UNL     1       8.168 -17.631  16.220  1.00  0.00    +0.009 A 
ATOM     40  C   UNL     1       8.610 -18.836  18.252  1.00  0.00    +0.009 A 
ATOM     41  C   UNL     1      10.130 -18.021  19.911  1.00  0.00    +0.021 A 
ATOM     42  C   UNL     1       9.245 -18.994  19.477  1.00  0.00    +0.002 A 
ATOM     43 Cl   UNL     1      11.547 -15.794  19.814  1.00  0.00    -0.084 Cl
ENDBRANCH   7  33
TORSDOF 8
ENDMDL
MODEL 7
REMARK VINA RESULT:    -8.769      3.422      9.655
REMARK INTER + INTRA:         -14.405
REMARK INTER:                 -12.674
REMARK INTRA:                  -1.731
REMARK UNBOUND:                -1.535
REMARK SMILES C=C(F)C(=O)N1CCN(c2nc(OC[C@@H]3CCCN3C)nc3c2CCN(c2cccc4cccc(Cl)c24)C3)C[C@@H]1CC#N
REMARK SMILES IDX 12 1 21 2 22 3 23 4 24 5 25 6 26 7 38 8 10 9 11 10 13 11
REMARK SMILES IDX 14 12 15 13 16 14 19 15 17 16 18 17 20 18 9 19 8 20 39 21
REMARK SMILES IDX 7 22 40 23 6 24 41 25 42 26 43 27 4 28 5 29 2 30 1 31 3 32
REMARK SMILES IDX 27 33 28 34 37 35 29 36 31 37 35 38 30 39 32 40 34 41 33 42
REMARK SMILES IDX 36 43
REMARK H PARENT
ROOT
ATOM      1  C   UNL     1      14.114 -10.250  18.689  1.00  0.00    +0.318 A 
ATOM      2  N   UNL     1      14.064 -11.404  18.021  1.00  0.00    -0.198 NA
ATOM      3  C   UNL     1      13.129 -12.287  18.425  1.00  0.00    +0.072 A 
ATOM      4  C   UNL     1      12.286 -12.040  19.506  1.00  0.00    +0.020 A 
ATOM      5  C   UNL     1      11.242 -13.044  19.922  1.00  0.00    +0.063 C 
ATOM      6  C   UNL     1      11.531 -14.448  19.384  1.00  0.00    +0.122 C 
ATOM      7  N   UNL     1      11.818 -14.341  17.951  1.00  0.00    -0.365 N 
ATOM      8  C   UNL     1      13.063 -13.601  17.664  1.00  0.00    +0.173 C 
ATOM      9  C   UNL     1      12.433 -10.808  20.135  1.00  0.00    +0.139 A 
ATOM     10  N   UNL     1      13.354  -9.918  19.737  1.00  0.00    -0.178 NA
ENDROOT
BRANCH   1  11
ATOM     11  O   UNL     1      15.002  -9.276  18.299  1.00  0.00    -0.462 OA
BRANCH  11  12
ATOM     12  C   UNL     1      16.377  -9.670  18.358  1.00  0.00    +0.252 C 
BRANCH  12  13
ATOM     13  C   UNL     1      17.122  -8.991  19.527  1.00  0.00    +0.094 C 
ATOM     14  C   UNL     1      18.646  -8.979  19.391  1.00  0.00    +0.024 C 
ATOM     15  N   UNL     1      16.882  -9.547  20.884  1.00  0.00    -0.300 NA
ATOM     16  C   UNL     1      19.162  -8.802  20.813  1.00  0.00    +0.017 C 
ATOM     17  C   UNL     1      17.933  -8.922  21.705  1.00  0.00    +0.084 C 
ATOM     18  C   UNL     1      16.972 -11.006  20.947  1.00  0.00    +0.105 C 
ENDBRANCH  12  13
ENDBRANCH  11  12
ENDBRANCH   1  11
BRANCH   9  19
ATOM     19  N   UNL     1      11.566 -10.455  21.184  1.00  0.00    -0.352 N 
ATOM     20  C   UNL     1      12.017  -9.283  21.961  1.00  0.00    +0.139 C 
ATOM     21  C   UNL     1      10.150 -10.440  20.751  1.00  0.00    +0.144 C 
ATOM     22  C   UNL     1      10.880  -8.738  22.833  1.00  0.00    +0.142 C 
ATOM     23  C   UNL     1       9.498  -9.025  20.751  1.00  0.00    +0.119 C 
ATOM     24  N   UNL     1       9.696  -8.333  22.057  1.00  0.00    -0.329 N 
BRANCH  23  25
ATOM     25  C   UNL     1       9.976  -8.150  19.573  1.00  0.00    +0.147 C 
ATOM     26  C   UNL     1       9.896  -8.881  18.303  1.00  0.00    +0.064 C 
ATOM     27  N   UNL     1       9.809  -9.475  17.309  1.00  0.00    -0.198 NA
ENDBRANCH  23  25
BRANCH  24  28
ATOM     28  C   UNL     1       8.776  -7.519  22.707  1.00  0.00    +0.282 C 
ATOM     29  O   UNL     1       7.563  -7.685  22.563  1.00  0.00    -0.266 OA
BRANCH  28  30
ATOM     30  C   UNL     1       9.258  -6.416  23.600  1.00  0.00    +0.180 C 
ATOM     31  C   UNL     1       8.957  -6.369  24.901  1.00  0.00    +0.057 C 
ATOM     32  F   UNL     1      10.052  -5.465  23.075  1.00  0.00    -0.202 F 
ENDBRANCH  28  30
ENDBRANCH  24  28
ENDBRANCH   9  19
BRANCH   7  33
ATOM     33  C   UNL     1      11.719 -15.528  17.197  1.00  0.00    +0.046 A 
ATOM     34  C   UNL     1      12.338 -16.701  17.676  1.00  0.00    +0.026 A 
ATOM     35  C   UNL     1      11.033 -15.539  15.925  1.00  0.00    +0.024 A 
ATOM     36  C   UNL     1      12.309 -17.881  16.947  1.00  0.00    +0.003 A 
ATOM     37  C   UNL     1      11.036 -16.768  15.201  1.00  0.00    -0.015 A 
ATOM     38  C   UNL     1      10.333 -14.452  15.299  1.00  0.00    +0.050 A 
ATOM     39  C   UNL     1      11.666 -17.909  15.719  1.00  0.00    +0.009 A 
ATOM     40  C   UNL     1      10.407 -16.878  13.949  1.00  0.00    +0.009 A 
ATOM     41  C   UNL     1       9.713 -14.589  14.047  1.00  0.00    +0.021 A 
ATOM     42  C   UNL     1       9.753 -15.798  13.372  1.00  0.00    +0.002 A 
ATOM     43 Cl   UNL     1      10.146 -12.877  16.011  1.00  0.00    -0.084 Cl
ENDBRANCH   7  33
TORSDOF 8
ENDMDL
MODEL 8
REMARK VINA RESULT:    -8.340      3.269      9.151
REMARK INTER + INTRA:         -13.776
REMARK INTER:                 -12.341
REMARK INTRA:                  -1.435
REMARK UNBOUND:                -1.535
REMARK SMILES C=C(F)C(=O)N1CCN(c2nc(OC[C@@H]3CCCN3C)nc3c2CCN(c2cccc4cccc(Cl)c24)C3)C[C@@H]1CC#N
REMARK SMILES IDX 12 1 21 2 22 3 23 4 24 5 25 6 26 7 38 8 10 9 11 10 13 11
REMARK SMILES IDX 14 12 15 13 16 14 19 15 17 16 18 17 20 18 9 19 8 20 39 21
REMARK SMILES IDX 7 22 40 23 6 24 41 25 42 26 43 27 4 28 5 29 2 30 1 31 3 32
REMARK SMILES IDX 27 33 28 34 37 35 29 36 31 37 35 38 30 39 32 40 34 41 33 42
REMARK SMILES IDX 36 43
REMARK H PARENT
ROOT
ATOM      1  C   UNL     1      12.147  -9.268  21.406  1.00  0.00    +0.318 A 
ATOM      2  N   UNL     1      11.373  -9.942  20.552  1.00  0.00    -0.198 NA
ATOM      3  C   UNL     1      11.982 -10.902  19.826  1.00  0.00    +0.072 A 
ATOM      4  C   UNL     1      13.348 -11.156  19.919  1.00  0.00    +0.020 A 
ATOM      5  C   UNL     1      13.992 -12.246  19.102  1.00  0.00    +0.063 C 
ATOM      6  C   UNL     1      13.139 -12.661  17.900  1.00  0.00    +0.122 C 
ATOM      7  N   UNL     1      11.771 -12.900  18.369  1.00  0.00    -0.365 N 
ATOM      8  C   UNL     1      11.104 -11.676  18.856  1.00  0.00    +0.173 C 
ATOM      9  C   UNL     1      14.058 -10.387  20.835  1.00  0.00    +0.139 A 
ATOM     10  N   UNL     1      13.463  -9.434  21.568  1.00  0.00    -0.178 NA
ENDROOT
BRANCH   1  11
ATOM     11  O   UNL     1      11.589  -8.314  22.223  1.00  0.00    -0.462 OA
BRANCH  11  12
ATOM     12  C   UNL     1      10.500  -7.595  21.635  1.00  0.00    +0.252 C 
BRANCH  12  13
ATOM     13  C   UNL     1       9.458  -7.166  22.689  1.00  0.00    +0.094 C 
ATOM     14  C   UNL     1       9.796  -7.576  24.124  1.00  0.00    +0.024 C 
ATOM     15  N   UNL     1       8.067  -7.652  22.490  1.00  0.00    -0.300 NA
ATOM     16  C   UNL     1       8.460  -7.569  24.856  1.00  0.00    +0.017 C 
ATOM     17  C   UNL     1       7.410  -7.356  23.774  1.00  0.00    +0.084 C 
ATOM     18  C   UNL     1       7.982  -9.080  22.179  1.00  0.00    +0.105 C 
ENDBRANCH  12  13
ENDBRANCH  11  12
ENDBRANCH   1  11
BRANCH   9  19
ATOM     19  N   UNL     1      15.426 -10.638  21.041  1.00  0.00    -0.352 N 
ATOM     20  C   UNL     1      16.316  -9.640  20.413  1.00  0.00    +0.139 C 
ATOM     21  C   UNL     1      15.721 -10.972  22.453  1.00  0.00    +0.144 C 
ATOM     22  C   UNL     1      17.741  -9.758  20.966  1.00  0.00    +0.142 C 
ATOM     23  C   UNL     1      16.583  -9.907  23.194  1.00  0.00    +0.119 C 
ATOM     24  N   UNL     1      17.815  -9.571  22.425  1.00  0.00    -0.329 N 
BRANCH  23  25
ATOM     25  C   UNL     1      15.781  -8.639  23.553  1.00  0.00    +0.147 C 
ATOM     26  C   UNL     1      16.594  -7.429  23.375  1.00  0.00    +0.064 C 
ATOM     27  N   UNL     1      17.252  -6.488  23.211  1.00  0.00    -0.198 NA
ENDBRANCH  23  25
BRANCH  24  28
ATOM     28  C   UNL     1      19.074  -9.313  22.955  1.00  0.00    +0.282 C 
ATOM     29  O   UNL     1      19.971  -8.828  22.262  1.00  0.00    -0.266 OA
BRANCH  28  30
ATOM     30  C   UNL     1      19.356  -9.627  24.392  1.00  0.00    +0.180 C 
ATOM     31  C   UNL     1      20.081 -10.688  24.762  1.00  0.00    +0.057 C 
ATOM     32  F   UNL     1      18.894  -8.787  25.336  1.00  0.00    -0.202 F 
ENDBRANCH  28  30
ENDBRANCH  24  28
ENDBRANCH   9  19
BRANCH   7  33
ATOM     33  C   UNL     1      10.938 -13.659  17.521  1.00  0.00    +0.046 A 
ATOM     34  C   UNL     1      10.863 -13.327  16.153  1.00  0.00    +0.026 A 
ATOM     35  C   UNL     1      10.131 -14.735  18.051  1.00  0.00    +0.024 A 
ATOM     36  C   UNL     1      10.022 -14.013  15.289  1.00  0.00    +0.003 A 
ATOM     37  C   UNL     1       9.271 -15.407  17.134  1.00  0.00    -0.015 A 
ATOM     38  C   UNL     1      10.098 -15.220  19.402  1.00  0.00    +0.050 A 
ATOM     39  C   UNL     1       9.231 -15.041  15.780  1.00  0.00    +0.009 A 
ATOM     40  C   UNL     1       8.438 -16.458  17.553  1.00  0.00    +0.009 A 
ATOM     41  C   UNL     1       9.256 -16.272  19.794  1.00  0.00    +0.021 A 
ATOM     42  C   UNL     1       8.425 -16.888  18.873  1.00  0.00    +0.002 A 
ATOM     43 Cl   UNL     1      11.094 -14.598  20.684  1.00  0.00    -0.084 Cl
ENDBRANCH   7  33
TORSDOF 8
ENDMDL
MODEL 9
REMARK VINA RESULT:    -8.098      2.571      3.585
REMARK INTER + INTRA:         -13.420
REMARK INTER:                 -11.875
REMARK INTRA:                  -1.546
REMARK UNBOUND:                -1.535
REMARK SMILES C=C(F)C(=O)N1CCN(c2nc(OC[C@@H]3CCCN3C)nc3c2CCN(c2cccc4cccc(Cl)c24)C3)C[C@@H]1CC#N
REMARK SMILES IDX 12 1 21 2 22 3 23 4 24 5 25 6 26 7 38 8 10 9 11 10 13 11
REMARK SMILES IDX 14 12 15 13 16 14 19 15 17 16 18 17 20 18 9 19 8 20 39 21
REMARK SMILES IDX 7 22 40 23 6 24 41 25 42 26 43 27 4 28 5 29 2 30 1 31 3 32
REMARK SMILES IDX 27 33 28 34 37 35 29 36 31 37 35 38 30 39 32 40 34 41 33 42
REMARK SMILES IDX 36 43
REMARK H PARENT
ROOT
ATOM      1  C   UNL     1      10.194  -9.127  20.741  1.00  0.00    +0.318 A 
ATOM      2  N   UNL     1      11.338  -9.152  21.429  1.00  0.00    -0.198 NA
ATOM      3  C   UNL     1      12.354  -9.842  20.873  1.00  0.00    +0.072 A 
ATOM      4  C   UNL     1      12.218 -10.532  19.671  1.00  0.00    +0.020 A 
ATOM      5  C   UNL     1      13.379 -11.282  19.071  1.00  0.00    +0.063 C 
ATOM      6  C   UNL     1      14.475 -11.586  20.096  1.00  0.00    +0.122 C 
ATOM      7  N   UNL     1      14.783 -10.349  20.819  1.00  0.00    -0.365 N 
ATOM      8  C   UNL     1      13.660  -9.868  21.649  1.00  0.00    +0.173 C 
ATOM      9  C   UNL     1      10.979 -10.445  19.045  1.00  0.00    +0.139 A 
ATOM     10  N   UNL     1       9.962  -9.755  19.584  1.00  0.00    -0.178 NA
ENDROOT
BRANCH   1  11
ATOM     11  O   UNL     1       9.131  -8.396  21.215  1.00  0.00    -0.462 OA
BRANCH  11  12
ATOM     12  C   UNL     1       8.955  -8.458  22.634  1.00  0.00    +0.252 C 
BRANCH  12  13
ATOM     13  C   UNL     1       8.288  -7.181  23.187  1.00  0.00    +0.094 C 
ATOM     14  C   UNL     1       9.247  -6.207  23.874  1.00  0.00    +0.024 C 
ATOM     15  N   UNL     1       7.195  -7.374  24.177  1.00  0.00    -0.300 NA
ATOM     16  C   UNL     1       8.362  -5.368  24.787  1.00  0.00    +0.017 C 
ATOM     17  C   UNL     1       6.990  -6.025  24.733  1.00  0.00    +0.084 C 
ATOM     18  C   UNL     1       7.522  -8.328  25.237  1.00  0.00    +0.105 C 
ENDBRANCH  12  13
ENDBRANCH  11  12
ENDBRANCH   1  11
BRANCH   9  19
ATOM     19  N   UNL     1      10.789 -11.051  17.790  1.00  0.00    -0.352 N 
ATOM     20  C   UNL     1      10.239 -12.419  17.866  1.00  0.00    +0.139 C 
ATOM     21  C   UNL     1      10.127 -10.138  16.830  1.00  0.00    +0.144 C 
ATOM     22  C   UNL     1       9.724 -12.876  16.497  1.00  0.00    +0.142 C 
ATOM     23  C   UNL     1       8.693 -10.582  16.413  1.00  0.00    +0.119 C 
ATOM     24  N   UNL     1       8.674 -12.000  15.951  1.00  0.00    -0.329 N 
BRANCH  23  25
ATOM     25  C   UNL     1       7.649 -10.340  17.523  1.00  0.00    +0.147 C 
ATOM     26  C   UNL     1       7.208  -8.940  17.539  1.00  0.00    +0.064 C 
ATOM     27  N   UNL     1       6.865  -7.831  17.522  1.00  0.00    -0.198 NA
ENDBRANCH  23  25
BRANCH  24  28
ATOM     28  C   UNL     1       7.916 -12.517  14.907  1.00  0.00    +0.282 C 
ATOM     29  O   UNL     1       7.749 -13.732  14.780  1.00  0.00    -0.266 OA
BRANCH  28  30
ATOM     30  C   UNL     1       7.286 -11.590  13.912  1.00  0.00    +0.180 C 
ATOM     31  C   UNL     1       7.848 -11.325  12.728  1.00  0.00    +0.057 C 
ATOM     32  F   UNL     1       6.095 -11.039  14.211  1.00  0.00    -0.202 F 
ENDBRANCH  28  30
ENDBRANCH  24  28
ENDBRANCH   9  19
BRANCH   7  33
ATOM     33  C   UNL     1      16.011 -10.313  21.512  1.00  0.00    +0.046 A 
ATOM     34  C   UNL     1      16.104 -10.926  22.778  1.00  0.00    +0.026 A 
ATOM     35  C   UNL     1      17.150  -9.617  20.958  1.00  0.00    +0.024 A 
ATOM     36  C   UNL     1      17.276 -10.876  23.519  1.00  0.00    +0.003 A 
ATOM     37  C   UNL     1      18.332  -9.578  21.755  1.00  0.00    -0.015 A 
ATOM     38  C   UNL     1      17.240  -8.961  19.683  1.00  0.00    +0.050 A 
ATOM     39  C   UNL     1      18.377 -10.203  23.010  1.00  0.00    +0.009 A 
ATOM     40  C   UNL     1      19.488  -8.916  21.311  1.00  0.00    +0.009 A 
ATOM     41  C   UNL     1      18.408  -8.307  19.264  1.00  0.00    +0.021 A 
ATOM     42  C   UNL     1      19.529  -8.281  20.077  1.00  0.00    +0.002 A 
ATOM     43 Cl   UNL     1      15.951  -8.922  18.517  1.00  0.00    -0.084 Cl
ENDBRANCH   7  33
TORSDOF 8
ENDMDL
