REMARK SMILES C=C(F)C(=O)N1CCN(c2nc(OC[C@@H]3CCCN3C)nc3c2CCN(c2cccc4cccc(Cl)c24)C3)C[C@@H]1CC#N
REMARK SMILES IDX 12 1 21 2 22 3 23 4 24 5 25 6 26 7 38 8 10 9 11 10 13 11
REMARK SMILES IDX 14 12 15 13 16 14 19 15 17 16 18 17 20 18 9 19 8 20 39 21
REMARK SMILES IDX 7 22 40 23 6 24 41 25 42 26 43 27 4 28 5 29 2 30 1 31 3 32
REMARK SMILES IDX 27 33 28 34 37 35 29 36 31 37 35 38 30 39 32 40 34 41 33 42
REMARK SMILES IDX 36 43
REMARK H PARENT
ROOT
ATOM      1  C   UNL     1       0.363   0.564  -2.392  1.00  0.00    +0.318 A 
ATOM      2  N   UNL     1      -0.812  -0.007  -2.118  1.00  0.00    -0.198 NA
ATOM      3  C   UNL     1      -0.782  -1.056  -1.271  1.00  0.00    +0.072 A 
ATOM      4  C   UNL     1       0.405  -1.553  -0.740  1.00  0.00    +0.020 A 
ATOM      5  C   UNL     1       0.400  -2.719   0.215  1.00  0.00    +0.063 C 
ATOM      6  C   UNL     1      -0.895  -3.533   0.141  1.00  0.00    +0.122 C 
ATOM      7  N   UNL     1      -2.026  -2.604   0.218  1.00  0.00    -0.365 N 
ATOM      8  C   UNL     1      -2.118  -1.706  -0.951  1.00  0.00    +0.173 C 
ATOM      9  C   UNL     1       1.571  -0.886  -1.101  1.00  0.00    +0.139 A 
ATOM     10  N   UNL     1       1.554   0.163  -1.937  1.00  0.00    -0.178 NA
ENDROOT
BRANCH   1  11
ATOM     11  O   UNL     1       0.408   1.674  -3.201  1.00  0.00    -0.462 OA
BRANCH  11  12
ATOM     12  C   UNL     1      -0.783   2.469  -3.183  1.00  0.00    +0.252 C 
BRANCH  12  13
ATOM     13  C   UNL     1      -0.795   3.461  -2.001  1.00  0.00    +0.094 C 
ATOM     14  C   UNL     1      -1.166   2.841  -0.652  1.00  0.00    +0.024 C 
ATOM     15  N   UNL     1      -1.700   4.634  -2.123  1.00  0.00    -0.300 NA
ATOM     16  C   UNL     1      -1.651   4.011   0.194  1.00  0.00    +0.017 C 
ATOM     17  C   UNL     1      -1.725   5.195  -0.761  1.00  0.00    +0.084 C 
ATOM     18  C   UNL     1      -3.051   4.292  -2.569  1.00  0.00    +0.105 C 
ENDBRANCH  12  13
ENDBRANCH  11  12
ENDBRANCH   1  11
BRANCH   9  19
ATOM     19  N   UNL     1       2.800  -1.282  -0.544  1.00  0.00    -0.352 N 
ATOM     20  C   UNL     1       3.935  -1.199  -1.485  1.00  0.00    +0.139 C 
ATOM     21  C   UNL     1       3.020  -0.683   0.792  1.00  0.00    +0.144 C 
ATOM     22  C   UNL     1       5.270  -1.289  -0.737  1.00  0.00    +0.142 C 
ATOM     23  C   UNL     1       4.192   0.342   0.846  1.00  0.00    +0.119 C 
ATOM     24  N   UNL     1       5.443  -0.229   0.270  1.00  0.00    -0.329 N 
BRANCH  23  25
ATOM     25  C   UNL     1       3.834   1.690   0.186  1.00  0.00    +0.147 C 
ATOM     26  C   UNL     1       2.809   2.403   0.958  1.00  0.00    +0.064 C 
ATOM     27  N   UNL     1       2.009   2.953   1.594  1.00  0.00    -0.198 NA
ENDBRANCH  23  25
BRANCH  24  28
ATOM     28  C   UNL     1       6.736  -0.022   0.737  1.00  0.00    +0.282 C 
ATOM     29  O   UNL     1       7.682  -0.691   0.315  1.00  0.00    -0.266 OA
BRANCH  28  30
ATOM     30  C   UNL     1       6.995   1.030   1.772  1.00  0.00    +0.180 C 
ATOM     31  C   UNL     1       8.164   1.128   2.413  1.00  0.00    +0.057 C 
ATOM     32  F   UNL     1       6.027   1.928   2.032  1.00  0.00    -0.202 F 
ENDBRANCH  28  30
ENDBRANCH  24  28
ENDBRANCH   9  19
BRANCH   7  33
ATOM     33  C   UNL     1      -3.276  -3.159   0.562  1.00  0.00    +0.046 A 
ATOM     34  C   UNL     1      -3.746  -4.286  -0.143  1.00  0.00    +0.026 A 
ATOM     35  C   UNL     1      -4.091  -2.557   1.593  1.00  0.00    +0.024 A 
ATOM     36  C   UNL     1      -4.990  -4.838   0.127  1.00  0.00    +0.003 A 
ATOM     37  C   UNL     1      -5.367  -3.147   1.832  1.00  0.00    -0.015 A 
ATOM     38  C   UNL     1      -3.764  -1.430   2.421  1.00  0.00    +0.050 A 
ATOM     39  C   UNL     1      -5.792  -4.268   1.104  1.00  0.00    +0.009 A 
ATOM     40  C   UNL     1      -6.239  -2.628   2.804  1.00  0.00    +0.009 A 
ATOM     41  C   UNL     1      -4.654  -0.932   3.385  1.00  0.00    +0.021 A 
ATOM     42  C   UNL     1      -5.890  -1.527   3.574  1.00  0.00    +0.002 A 
ATOM     43 Cl   UNL     1      -2.248  -0.581   2.353  1.00  0.00    -0.084 Cl
ENDBRANCH   7  33
TORSDOF 8
