MODEL 1
REMARK VINA RESULT:   -12.261      0.000      0.000
REMARK INTER + INTRA:         -17.662
REMARK INTER:                 -16.203
REMARK INTRA:                  -1.459
REMARK UNBOUND:                -1.459
REMARK SMILES C=CC(=O)N1CCN(c2cc(-c3noc([C@@]4(C)CCCc5sc(N)c(C#N)c54)n3)nc(N3CCN(C)C[C@@H]3C)c2)CC1
REMARK SMILES IDX 12 1 29 2 15 3 14 4 13 5 11 6 31 7 40 8 30 9 9 10 10 11
REMARK SMILES IDX 32 12 38 13 37 14 35 15 33 16 34 17 39 18 36 19 8 20 7 21
REMARK SMILES IDX 41 22 6 23 42 24 5 25 3 26 4 27 2 28 1 29 16 30 18 31 28 32
REMARK SMILES IDX 19 33 21 34 25 35 20 36 22 37 23 38 26 39 27 40 17 41 24 42
REMARK H PARENT 24 43 24 44
ROOT
ATOM      1  C   UNL     1      14.917  -8.954  22.336  1.00  0.00    +0.221 A 
ATOM      2  N   UNL     1      16.039  -8.891  21.525  1.00  0.00    -0.189 NA
ATOM      3  C   UNL     1      16.950  -8.391  22.329  1.00  0.00    +0.237 A 
ATOM      4  O   UNL     1      16.472  -8.134  23.581  1.00  0.00    -0.338 OA
ATOM      5  N   UNL     1      15.128  -8.485  23.578  1.00  0.00    -0.055 NA
ENDROOT
BRANCH   1   6
ATOM      6  C   UNL     1      13.650  -9.516  21.866  1.00  0.00    +0.116 A 
ATOM      7  C   UNL     1      11.340  -9.647  22.137  1.00  0.00    +0.131 A 
ATOM      8  C   UNL     1      11.286 -10.523  21.047  1.00  0.00    +0.073 A 
ATOM      9  N   UNL     1      12.529  -9.157  22.533  1.00  0.00    -0.227 NA
ATOM     10  C   UNL     1      12.436 -10.932  20.351  1.00  0.00    +0.043 A 
ATOM     11  C   UNL     1      13.640 -10.386  20.784  1.00  0.00    +0.058 A 
BRANCH   7  12
ATOM     12  N   UNL     1      10.205  -9.229  22.819  1.00  0.00    -0.351 N 
ATOM     13  C   UNL     1      10.330  -8.024  23.675  1.00  0.00    +0.094 C 
ATOM     14  C   UNL     1       9.539  -8.216  25.000  1.00  0.00    +0.109 C 
ATOM     15  N   UNL     1       8.101  -8.521  24.839  1.00  0.00    -0.303 NA
ATOM     16  C   UNL     1       9.093 -10.140  23.111  1.00  0.00    +0.134 C 
ATOM     17  C   UNL     1       7.861  -9.391  23.671  1.00  0.00    +0.105 C 
ATOM     18  C   UNL     1       9.870  -6.786  22.904  1.00  0.00    +0.032 C 
ATOM     19  C   UNL     1       7.552  -9.086  26.067  1.00  0.00    +0.105 C 
ENDBRANCH   7  12
BRANCH  10  20
ATOM     20  N   UNL     1      12.360 -11.816  19.275  1.00  0.00    -0.368 N 
ATOM     21  C   UNL     1      11.048 -12.391  18.906  1.00  0.00    +0.138 C 
ATOM     22  C   UNL     1      13.553 -12.540  18.802  1.00  0.00    +0.138 C 
ATOM     23  C   UNL     1      11.168 -13.815  18.333  1.00  0.00    +0.141 C 
ATOM     24  C   UNL     1      13.341 -13.090  17.377  1.00  0.00    +0.141 C 
ATOM     25  N   UNL     1      12.128 -13.904  17.232  1.00  0.00    -0.336 N 
ATOM     26  C   UNL     1      11.871 -14.784  16.197  1.00  0.00    +0.246 C 
ATOM     27  O   UNL     1      10.905 -15.543  16.193  1.00  0.00    -0.270 OA
BRANCH  26  28
ATOM     28  C   UNL     1      12.820 -14.769  15.049  1.00  0.00    +0.063 C 
ATOM     29  C   UNL     1      12.415 -15.145  13.828  1.00  0.00    +0.014 C 
ENDBRANCH  26  28
ENDBRANCH  10  20
ENDBRANCH   1   6
BRANCH   3  30
ATOM     30  C   UNL     1      18.417  -8.136  22.078  1.00  0.00    +0.074 C 
ATOM     31  C   UNL     1      18.646  -6.587  21.975  1.00  0.00    +0.022 C 
ATOM     32  C   UNL     1      19.281  -8.730  23.200  1.00  0.00    +0.001 A 
ATOM     33  C   UNL     1      20.119  -6.180  22.115  1.00  0.00    +0.007 C 
ATOM     34  C   UNL     1      20.295  -8.001  23.800  1.00  0.00    +0.012 A 
ATOM     35  C   UNL     1      19.233 -10.070  23.750  1.00  0.00    +0.091 A 
ATOM     36  C   UNL     1      20.673  -6.586  23.484  1.00  0.00    +0.047 C 
ATOM     37  S   UNL     1      21.110  -8.866  25.013  1.00  0.00    -0.122 S 
ATOM     38  C   UNL     1      20.167 -10.269  24.753  1.00  0.00    +0.104 A 
ATOM     39  C   UNL     1      18.348 -11.120  23.329  1.00  0.00    +0.103 C 
ATOM     40  N   UNL     1      17.660 -11.987  22.977  1.00  0.00    -0.192 NA
ATOM     41  C   UNL     1      18.826  -8.776  20.728  1.00  0.00    +0.027 C 
BRANCH  38  42
ATOM     42  N   UNL     1      20.398 -11.376  25.490  1.00  0.00    -0.389 N 
ATOM     43  H   UNL     1      20.780 -12.206  25.043  1.00  0.00    +0.157 HD
ATOM     44  H   UNL     1      19.910 -11.561  26.364  1.00  0.00    +0.157 HD
ENDBRANCH  38  42
ENDBRANCH   3  30
TORSDOF 6
ENDMDL
MODEL 2
REMARK VINA RESULT:   -11.993      2.188      6.479
REMARK INTER + INTRA:         -17.309
REMARK INTER:                 -16.089
REMARK INTRA:                  -1.220
REMARK UNBOUND:                -1.459
REMARK SMILES C=CC(=O)N1CCN(c2cc(-c3noc([C@@]4(C)CCCc5sc(N)c(C#N)c54)n3)nc(N3CCN(C)C[C@@H]3C)c2)CC1
REMARK SMILES IDX 12 1 29 2 15 3 14 4 13 5 11 6 31 7 40 8 30 9 9 10 10 11
REMARK SMILES IDX 32 12 38 13 37 14 35 15 33 16 34 17 39 18 36 19 8 20 7 21
REMARK SMILES IDX 41 22 6 23 42 24 5 25 3 26 4 27 2 28 1 29 16 30 18 31 28 32
REMARK SMILES IDX 19 33 21 34 25 35 20 36 22 37 23 38 26 39 27 40 17 41 24 42
REMARK H PARENT 24 43 24 44
ROOT
ATOM      1  C   UNL     1      15.056  -8.709  22.665  1.00  0.00    +0.221 A 
ATOM      2  N   UNL     1      16.141  -8.602  21.809  1.00  0.00    -0.189 NA
ATOM      3  C   UNL     1      17.111  -8.233  22.614  1.00  0.00    +0.237 A 
ATOM      4  O   UNL     1      16.705  -8.097  23.910  1.00  0.00    -0.338 OA
ATOM      5  N   UNL     1      15.347  -8.389  23.938  1.00  0.00    -0.055 NA
ENDROOT
BRANCH   1   6
ATOM      6  C   UNL     1      13.744  -9.163  22.204  1.00  0.00    +0.116 A 
ATOM      7  C   UNL     1      12.534 -10.642  20.870  1.00  0.00    +0.131 A 
ATOM      8  C   UNL     1      11.352 -10.041  21.317  1.00  0.00    +0.073 A 
ATOM      9  N   UNL     1      13.718 -10.188  21.321  1.00  0.00    -0.227 NA
ATOM     10  C   UNL     1      11.349  -8.958  22.215  1.00  0.00    +0.043 A 
ATOM     11  C   UNL     1      12.595  -8.537  22.668  1.00  0.00    +0.058 A 
BRANCH   7  12
ATOM     12  N   UNL     1      12.541 -11.719  19.995  1.00  0.00    -0.351 N 
ATOM     13  C   UNL     1      13.370 -11.596  18.770  1.00  0.00    +0.094 C 
ATOM     14  C   UNL     1      12.625 -12.206  17.549  1.00  0.00    +0.109 C 
ATOM     15  N   UNL     1      12.225 -13.621  17.694  1.00  0.00    -0.303 NA
ATOM     16  C   UNL     1      11.458 -12.708  19.968  1.00  0.00    +0.134 C 
ATOM     17  C   UNL     1      11.804 -13.924  19.077  1.00  0.00    +0.105 C 
ATOM     18  C   UNL     1      14.735 -12.247  18.996  1.00  0.00    +0.032 C 
ATOM     19  C   UNL     1      11.199 -13.971  16.719  1.00  0.00    +0.105 C 
ENDBRANCH   7  12
BRANCH  10  20
ATOM     20  N   UNL     1      10.160  -8.367  22.637  1.00  0.00    -0.368 N 
ATOM     21  C   UNL     1      10.089  -6.893  22.752  1.00  0.00    +0.138 C 
ATOM     22  C   UNL     1       9.157  -9.135  23.395  1.00  0.00    +0.138 C 
ATOM     23  C   UNL     1       9.151  -6.434  23.884  1.00  0.00    +0.141 C 
ATOM     24  C   UNL     1       7.782  -8.439  23.363  1.00  0.00    +0.141 C 
ATOM     25  N   UNL     1       7.819  -7.036  23.795  1.00  0.00    -0.336 N 
ATOM     26  C   UNL     1       6.726  -6.288  24.189  1.00  0.00    +0.246 C 
ATOM     27  O   UNL     1       6.828  -5.163  24.673  1.00  0.00    -0.270 OA
BRANCH  26  28
ATOM     28  C   UNL     1       5.383  -6.900  23.988  1.00  0.00    +0.063 C 
ATOM     29  C   UNL     1       4.271  -6.186  24.208  1.00  0.00    +0.014 C 
ENDBRANCH  26  28
ENDBRANCH  10  20
ENDBRANCH   1   6
BRANCH   3  30
ATOM     30  C   UNL     1      18.574  -8.011  22.316  1.00  0.00    +0.074 C 
ATOM     31  C   UNL     1      18.850  -6.468  22.277  1.00  0.00    +0.022 C 
ATOM     32  C   UNL     1      19.461  -8.685  23.375  1.00  0.00    +0.001 A 
ATOM     33  C   UNL     1      20.340  -6.114  22.376  1.00  0.00    +0.007 C 
ATOM     34  C   UNL     1      20.521  -8.018  23.967  1.00  0.00    +0.012 A 
ATOM     35  C   UNL     1      19.390 -10.048  23.864  1.00  0.00    +0.091 A 
ATOM     36  C   UNL     1      20.933  -6.602  23.701  1.00  0.00    +0.047 C 
ATOM     37  S   UNL     1      21.353  -8.965  25.105  1.00  0.00    -0.122 S 
ATOM     38  C   UNL     1      20.355 -10.323  24.817  1.00  0.00    +0.104 A 
ATOM     39  C   UNL     1      18.455 -11.048  23.430  1.00  0.00    +0.103 C 
ATOM     40  N   UNL     1      17.726 -11.876  23.066  1.00  0.00    -0.192 NA
ATOM     41  C   UNL     1      18.910  -8.600  20.923  1.00  0.00    +0.027 C 
BRANCH  38  42
ATOM     42  N   UNL     1      20.577 -11.471  25.493  1.00  0.00    -0.389 N 
ATOM     43  H   UNL     1      21.463 -11.957  25.379  1.00  0.00    +0.157 HD
ATOM     44  H   UNL     1      19.820 -12.061  25.831  1.00  0.00    +0.157 HD
ENDBRANCH  38  42
ENDBRANCH   3  30
TORSDOF 6
ENDMDL
MODEL 3
REMARK VINA RESULT:    -9.830      3.532      9.846
REMARK INTER + INTRA:         -14.450
REMARK INTER:                 -13.172
REMARK INTRA:                  -1.278
REMARK UNBOUND:                -1.459
REMARK SMILES C=CC(=O)N1CCN(c2cc(-c3noc([C@@]4(C)CCCc5sc(N)c(C#N)c54)n3)nc(N3CCN(C)C[C@@H]3C)c2)CC1
REMARK SMILES IDX 12 1 29 2 15 3 14 4 13 5 11 6 31 7 40 8 30 9 9 10 10 11
REMARK SMILES IDX 32 12 38 13 37 14 35 15 33 16 34 17 39 18 36 19 8 20 7 21
REMARK SMILES IDX 41 22 6 23 42 24 5 25 3 26 4 27 2 28 1 29 16 30 18 31 28 32
REMARK SMILES IDX 19 33 21 34 25 35 20 36 22 37 23 38 26 39 27 40 17 41 24 42
REMARK H PARENT 24 43 24 44
ROOT
ATOM      1  C   UNL     1      11.374  -8.141  22.482  1.00  0.00    +0.221 A 
ATOM      2  N   UNL     1      10.864  -8.353  23.753  1.00  0.00    -0.189 NA
ATOM      3  C   UNL     1       9.833  -7.539  23.791  1.00  0.00    +0.237 A 
ATOM      4  O   UNL     1       9.670  -6.832  22.635  1.00  0.00    -0.338 OA
ATOM      5  N   UNL     1      10.698  -7.213  21.783  1.00  0.00    -0.055 NA
ENDROOT
BRANCH   1   6
ATOM      6  C   UNL     1      12.517  -8.896  21.968  1.00  0.00    +0.116 A 
ATOM      7  C   UNL     1      13.320 -10.419  20.398  1.00  0.00    +0.131 A 
ATOM      8  C   UNL     1      14.588 -10.314  20.980  1.00  0.00    +0.073 A 
ATOM      9  N   UNL     1      12.298  -9.706  20.907  1.00  0.00    -0.227 NA
ATOM     10  C   UNL     1      14.840  -9.499  22.098  1.00  0.00    +0.043 A 
ATOM     11  C   UNL     1      13.759  -8.767  22.577  1.00  0.00    +0.058 A 
BRANCH   7  12
ATOM     12  N   UNL     1      13.069 -11.211  19.286  1.00  0.00    -0.351 N 
ATOM     13  C   UNL     1      11.693 -11.191  18.732  1.00  0.00    +0.094 C 
ATOM     14  C   UNL     1      11.262 -12.622  18.301  1.00  0.00    +0.109 C 
ATOM     15  N   UNL     1      12.146 -13.279  17.315  1.00  0.00    -0.303 NA
ATOM     16  C   UNL     1      13.904 -12.370  18.952  1.00  0.00    +0.134 C 
ATOM     17  C   UNL     1      13.565 -12.947  17.557  1.00  0.00    +0.105 C 
ATOM     18  C   UNL     1      11.610 -10.192  17.577  1.00  0.00    +0.032 C 
ATOM     19  C   UNL     1      11.916 -14.719  17.293  1.00  0.00    +0.105 C 
ENDBRANCH   7  12
BRANCH  10  20
ATOM     20  N   UNL     1      16.110  -9.419  22.669  1.00  0.00    -0.368 N 
ATOM     21  C   UNL     1      17.141 -10.405  22.274  1.00  0.00    +0.138 C 
ATOM     22  C   UNL     1      16.325  -8.717  23.945  1.00  0.00    +0.138 C 
ATOM     23  C   UNL     1      18.115 -10.730  23.421  1.00  0.00    +0.141 C 
ATOM     24  C   UNL     1      17.814  -8.376  24.148  1.00  0.00    +0.141 C 
ATOM     25  N   UNL     1      18.709  -9.532  24.017  1.00  0.00    -0.336 N 
ATOM     26  C   UNL     1      20.012  -9.596  24.475  1.00  0.00    +0.246 C 
ATOM     27  O   UNL     1      20.672 -10.633  24.464  1.00  0.00    -0.270 OA
BRANCH  26  28
ATOM     28  C   UNL     1      20.610  -8.329  24.981  1.00  0.00    +0.063 C 
ATOM     29  C   UNL     1      21.032  -7.388  24.125  1.00  0.00    +0.014 C 
ENDBRANCH  26  28
ENDBRANCH  10  20
ENDBRANCH   1   6
BRANCH   3  30
ATOM     30  C   UNL     1       8.806  -7.340  24.880  1.00  0.00    +0.074 C 
ATOM     31  C   UNL     1       8.835  -5.837  25.328  1.00  0.00    +0.022 C 
ATOM     32  C   UNL     1       7.401  -7.724  24.391  1.00  0.00    +0.001 A 
ATOM     33  C   UNL     1       7.596  -5.418  26.130  1.00  0.00    +0.007 C 
ATOM     34  C   UNL     1       6.307  -6.902  24.607  1.00  0.00    +0.012 A 
ATOM     35  C   UNL     1       6.991  -8.941  23.720  1.00  0.00    +0.091 A 
ATOM     36  C   UNL     1       6.323  -5.571  25.293  1.00  0.00    +0.047 C 
ATOM     37  S   UNL     1       4.863  -7.536  23.976  1.00  0.00    -0.122 S 
ATOM     38  C   UNL     1       5.638  -8.958  23.427  1.00  0.00    +0.104 A 
ATOM     39  C   UNL     1       7.846 -10.046  23.387  1.00  0.00    +0.103 C 
ATOM     40  N   UNL     1       8.519 -10.960  23.140  1.00  0.00    -0.192 NA
ATOM     41  C   UNL     1       9.176  -8.217  26.102  1.00  0.00    +0.027 C 
BRANCH  38  42
ATOM     42  N   UNL     1       4.916  -9.914  22.802  1.00  0.00    -0.389 N 
ATOM     43  H   UNL     1       5.326 -10.832  22.651  1.00  0.00    +0.157 HD
ATOM     44  H   UNL     1       4.145  -9.694  22.177  1.00  0.00    +0.157 HD
ENDBRANCH  38  42
ENDBRANCH   3  30
TORSDOF 6
ENDMDL
