REMARK SMILES C=CC(=O)N1CCN(c2cc(-c3noc([C@@]4(C)CCCc5sc(N)c(C#N)c54)n3)nc(N3CCN(C)C[C@@H]3C)c2)CC1
REMARK SMILES IDX 12 1 29 2 15 3 14 4 13 5 11 6 31 7 40 8 30 9 9 10 10 11
REMARK SMILES IDX 32 12 38 13 37 14 35 15 33 16 34 17 39 18 36 19 8 20 7 21
REMARK SMILES IDX 41 22 6 23 42 24 5 25 3 26 4 27 2 28 1 29 16 30 18 31 28 32
REMARK SMILES IDX 19 33 21 34 25 35 20 36 22 37 23 38 26 39 27 40 17 41 24 42
REMARK H PARENT 24 43 24 44
ROOT
ATOM      1  C   UNL     1      -1.657  -0.637  -0.674  1.00  0.00    +0.221 A 
ATOM      2  N   UNL     1      -2.295   0.552  -0.989  1.00  0.00    -0.189 NA
ATOM      3  C   UNL     1      -3.563   0.208  -0.997  1.00  0.00    +0.237 A 
ATOM      4  O   UNL     1      -3.758  -1.113  -0.715  1.00  0.00    -0.338 OA
ATOM      5  N   UNL     1      -2.501  -1.673  -0.524  1.00  0.00    -0.055 NA
ENDROOT
BRANCH   1   6
ATOM      6  C   UNL     1      -0.207  -0.717  -0.494  1.00  0.00    +0.116 A 
ATOM      7  C   UNL     1       1.701  -2.054  -0.493  1.00  0.00    +0.131 A 
ATOM      8  C   UNL     1       2.463  -0.925  -0.172  1.00  0.00    +0.073 A 
ATOM      9  N   UNL     1       0.370  -1.931  -0.647  1.00  0.00    -0.227 NA
ATOM     10  C   UNL     1       1.888   0.344   0.017  1.00  0.00    +0.043 A 
ATOM     11  C   UNL     1       0.512   0.426  -0.171  1.00  0.00    +0.058 A 
BRANCH   7  12
ATOM     12  N   UNL     1       2.266  -3.306  -0.694  1.00  0.00    -0.351 N 
ATOM     13  C   UNL     1       1.346  -4.469  -0.738  1.00  0.00    +0.094 C 
ATOM     14  C   UNL     1       1.970  -5.682   0.009  1.00  0.00    +0.109 C 
ATOM     15  N   UNL     1       3.291  -6.120  -0.489  1.00  0.00    -0.303 NA
ATOM     16  C   UNL     1       3.674  -3.583  -0.389  1.00  0.00    +0.134 C 
ATOM     17  C   UNL     1       4.118  -4.971  -0.908  1.00  0.00    +0.105 C 
ATOM     18  C   UNL     1       0.997  -4.804  -2.189  1.00  0.00    +0.032 C 
ATOM     19  C   UNL     1       3.967  -6.951   0.501  1.00  0.00    +0.105 C 
ENDBRANCH   7  12
BRANCH  10  20
ATOM     20  N   UNL     1       2.665   1.453   0.349  1.00  0.00    -0.368 N 
ATOM     21  C   UNL     1       3.878   1.262   1.175  1.00  0.00    +0.138 C 
ATOM     22  C   UNL     1       2.101   2.813   0.312  1.00  0.00    +0.138 C 
ATOM     23  C   UNL     1       4.167   2.469   2.086  1.00  0.00    +0.141 C 
ATOM     24  C   UNL     1       3.216   3.877   0.276  1.00  0.00    +0.141 C 
ATOM     25  N   UNL     1       4.203   3.736   1.354  1.00  0.00    -0.336 N 
ATOM     26  C   UNL     1       5.086   4.716   1.768  1.00  0.00    +0.246 C 
ATOM     27  O   UNL     1       5.795   4.596   2.764  1.00  0.00    -0.270 OA
BRANCH  26  28
ATOM     28  C   UNL     1       5.162   5.949   0.935  1.00  0.00    +0.063 C 
ATOM     29  C   UNL     1       5.774   7.046   1.401  1.00  0.00    +0.014 C 
ENDBRANCH  26  28
ENDBRANCH  10  20
ENDBRANCH   1   6
BRANCH   3  30
ATOM     30  C   UNL     1      -4.789   1.064  -1.205  1.00  0.00    +0.074 C 
ATOM     31  C   UNL     1      -5.731   0.349  -2.235  1.00  0.00    +0.022 C 
ATOM     32  C   UNL     1      -5.529   1.300   0.121  1.00  0.00    +0.001 A 
ATOM     33  C   UNL     1      -7.162   0.903  -2.236  1.00  0.00    +0.007 C 
ATOM     34  C   UNL     1      -6.901   1.139   0.226  1.00  0.00    +0.012 A 
ATOM     35  C   UNL     1      -4.978   1.751   1.383  1.00  0.00    +0.091 A 
ATOM     36  C   UNL     1      -7.827   0.709  -0.870  1.00  0.00    +0.047 C 
ATOM     37  S   UNL     1      -7.491   1.454   1.787  1.00  0.00    -0.122 S 
ATOM     38  C   UNL     1      -5.938   1.863   2.374  1.00  0.00    +0.104 A 
ATOM     39  C   UNL     1      -3.601   2.077   1.630  1.00  0.00    +0.103 C 
ATOM     40  N   UNL     1      -2.497   2.374   1.836  1.00  0.00    -0.192 NA
ATOM     41  C   UNL     1      -4.367   2.430  -1.801  1.00  0.00    +0.027 C 
BRANCH  38  42
ATOM     42  N   UNL     1      -5.788   2.239   3.663  1.00  0.00    -0.389 N 
ATOM     43  H   UNL     1      -6.611   2.431   4.228  1.00  0.00    +0.157 HD
ATOM     44  H   UNL     1      -4.935   2.672   4.009  1.00  0.00    +0.157 HD
ENDBRANCH  38  42
ENDBRANCH   3  30
TORSDOF 6
