MODEL 1
REMARK VINA RESULT:    -9.298      0.000      0.000
REMARK INTER + INTRA:         -13.190
REMARK INTER:                 -12.831
REMARK INTRA:                  -0.359
REMARK UNBOUND:                -0.359
REMARK SMILES C=CC(=O)N1CCN(c2nc(=O)n(-c3c(C)ccnc3C(C)C)c3nc(-c4c(O)cccc4F)c(F)cc23)[C@@H](C)C1
REMARK SMILES IDX 13 1 11 2 12 3 10 4 9 5 38 6 37 7 35 8 36 9 26 10 25 11
REMARK SMILES IDX 24 12 14 13 20 14 19 15 18 16 15 17 17 18 16 19 21 20 22 21
REMARK SMILES IDX 23 22 8 23 7 24 39 25 6 26 41 27 5 28 40 29 3 30 4 31 2 32
REMARK SMILES IDX 1 33 27 34 28 35 33 36 30 37 32 38 31 39 34 40 29 41
REMARK H PARENT 29 42
ROOT
ATOM      1  N   UNL     1      12.802 -11.836  19.167  1.00  0.00    -0.242 N 
ATOM      2  C   UNL     1      13.929 -12.339  18.531  1.00  0.00    +0.355 C 
ATOM      3  O   UNL     1      13.852 -13.031  17.517  1.00  0.00    -0.245 OA
ATOM      4  N   UNL     1      15.165 -12.078  19.073  1.00  0.00    -0.175 NA
ATOM      5  C   UNL     1      15.315 -11.334  20.125  1.00  0.00    +0.145 C 
ATOM      6  C   UNL     1      14.162 -10.667  20.762  1.00  0.00    +0.064 A 
ATOM      7  C   UNL     1      14.299  -9.737  21.793  1.00  0.00    +0.057 A 
ATOM      8  C   UNL     1      13.157  -9.171  22.335  1.00  0.00    +0.150 A 
ATOM      9  F   UNL     1      13.277  -8.295  23.344  1.00  0.00    -0.205 F 
ATOM     10  C   UNL     1      11.913  -9.536  21.835  1.00  0.00    +0.115 A 
ATOM     11  N   UNL     1      11.779 -10.423  20.811  1.00  0.00    -0.226 NA
ATOM     12  C   UNL     1      12.901 -10.967  20.272  1.00  0.00    +0.153 A 
ENDROOT
BRANCH   1  13
ATOM     13  C   UNL     1      11.506 -12.057  18.628  1.00  0.00    +0.077 A 
ATOM     14  C   UNL     1      10.753 -13.198  18.976  1.00  0.00    +0.067 A 
ATOM     15  N   UNL     1       9.527 -13.451  18.436  1.00  0.00    -0.259 NA
ATOM     16  C   UNL     1       9.035 -12.566  17.549  1.00  0.00    +0.112 A 
ATOM     17  C   UNL     1      10.956 -11.144  17.702  1.00  0.00    -0.023 A 
ATOM     18  C   UNL     1       9.700 -11.421  17.153  1.00  0.00    +0.025 A 
ATOM     19  C   UNL     1      11.681  -9.903  17.262  1.00  0.00    +0.047 C 
BRANCH  14  20
ATOM     20  C   UNL     1      11.291 -14.281  19.899  1.00  0.00    +0.034 C 
ATOM     21  C   UNL     1      11.723 -15.499  19.081  1.00  0.00    +0.014 C 
ATOM     22  C   UNL     1      10.261 -14.681  20.959  1.00  0.00    +0.014 C 
ENDBRANCH  14  20
ENDBRANCH   1  13
BRANCH   5  23
ATOM     23  N   UNL     1      16.594 -11.164  20.658  1.00  0.00    -0.350 N 
ATOM     24  C   UNL     1      16.713 -11.154  22.138  1.00  0.00    +0.140 C 
ATOM     25  C   UNL     1      17.572 -10.265  19.956  1.00  0.00    +0.100 C 
ATOM     26  C   UNL     1      16.958  -9.745  22.690  1.00  0.00    +0.141 C 
ATOM     27  C   UNL     1      18.690  -9.766  20.907  1.00  0.00    +0.144 C 
ATOM     28  N   UNL     1      18.156  -9.122  22.111  1.00  0.00    -0.335 N 
ATOM     29  C   UNL     1      16.880  -9.061  19.300  1.00  0.00    +0.033 C 
BRANCH  28  30
ATOM     30  C   UNL     1      18.827  -8.032  22.634  1.00  0.00    +0.246 C 
ATOM     31  O   UNL     1      19.422  -8.072  23.709  1.00  0.00    -0.270 OA
BRANCH  30  32
ATOM     32  C   UNL     1      18.812  -6.781  21.826  1.00  0.00    +0.063 C 
ATOM     33  C   UNL     1      18.716  -5.587  22.426  1.00  0.00    +0.014 C 
ENDBRANCH  30  32
ENDBRANCH  28  30
ENDBRANCH   5  23
BRANCH  10  34
ATOM     34  C   UNL     1      10.669  -8.995  22.370  1.00  0.00    +0.081 A 
ATOM     35  C   UNL     1       9.606  -9.819  22.771  1.00  0.00    +0.128 A 
ATOM     36  C   UNL     1      10.500  -7.611  22.499  1.00  0.00    +0.136 A 
ATOM     37  C   UNL     1       8.424  -9.280  23.292  1.00  0.00    +0.047 A 
ATOM     38  C   UNL     1       9.329  -7.061  23.017  1.00  0.00    +0.040 A 
ATOM     39  C   UNL     1       8.289  -7.898  23.417  1.00  0.00    +0.007 A 
ATOM     40  F   UNL     1      11.469  -6.775  22.096  1.00  0.00    -0.206 F 
BRANCH  35  41
ATOM     41  O   UNL     1       9.732 -11.178  22.648  1.00  0.00    -0.507 OA
ATOM     42  H   UNL     1       9.834 -11.404  21.709  1.00  0.00    +0.293 HD
ENDBRANCH  35  41
ENDBRANCH  10  34
TORSDOF 7
ENDMDL
MODEL 2
REMARK VINA RESULT:    -8.722      1.498      2.518
REMARK INTER + INTRA:         -12.396
REMARK INTER:                 -11.937
REMARK INTRA:                  -0.459
REMARK UNBOUND:                -0.359
REMARK SMILES C=CC(=O)N1CCN(c2nc(=O)n(-c3c(C)ccnc3C(C)C)c3nc(-c4c(O)cccc4F)c(F)cc23)[C@@H](C)C1
REMARK SMILES IDX 13 1 11 2 12 3 10 4 9 5 38 6 37 7 35 8 36 9 26 10 25 11
REMARK SMILES IDX 24 12 14 13 20 14 19 15 18 16 15 17 17 18 16 19 21 20 22 21
REMARK SMILES IDX 23 22 8 23 7 24 39 25 6 26 41 27 5 28 40 29 3 30 4 31 2 32
REMARK SMILES IDX 1 33 27 34 28 35 33 36 30 37 32 38 31 39 34 40 29 41
REMARK H PARENT 29 42
ROOT
ATOM      1  N   UNL     1      11.400 -11.911  19.650  1.00  0.00    -0.242 N 
ATOM      2  C   UNL     1      12.285 -12.588  18.822  1.00  0.00    +0.355 C 
ATOM      3  O   UNL     1      11.901 -13.410  17.991  1.00  0.00    -0.245 OA
ATOM      4  N   UNL     1      13.631 -12.352  18.960  1.00  0.00    -0.175 NA
ATOM      5  C   UNL     1      14.098 -11.478  19.798  1.00  0.00    +0.145 C 
ATOM      6  C   UNL     1      13.195 -10.637  20.610  1.00  0.00    +0.064 A 
ATOM      7  C   UNL     1      13.649  -9.583  21.402  1.00  0.00    +0.057 A 
ATOM      8  C   UNL     1      12.726  -8.856  22.136  1.00  0.00    +0.150 A 
ATOM      9  F   UNL     1      13.156  -7.856  22.920  1.00  0.00    -0.205 F 
ATOM     10  C   UNL     1      11.379  -9.188  22.056  1.00  0.00    +0.115 A 
ATOM     11  N   UNL     1      10.931 -10.199  21.262  1.00  0.00    -0.226 NA
ATOM     12  C   UNL     1      11.837 -10.903  20.533  1.00  0.00    +0.153 A 
ENDROOT
BRANCH   1  13
ATOM     13  C   UNL     1       9.998 -12.103  19.526  1.00  0.00    +0.077 A 
ATOM     14  C   UNL     1       9.230 -11.331  18.628  1.00  0.00    +0.067 A 
ATOM     15  N   UNL     1       7.877 -11.469  18.527  1.00  0.00    -0.259 NA
ATOM     16  C   UNL     1       7.276 -12.382  19.313  1.00  0.00    +0.112 A 
ATOM     17  C   UNL     1       9.337 -13.058  20.329  1.00  0.00    -0.023 A 
ATOM     18  C   UNL     1       7.949 -13.183  20.216  1.00  0.00    +0.025 A 
ATOM     19  C   UNL     1      10.065 -13.924  21.318  1.00  0.00    +0.047 C 
BRANCH  14  20
ATOM     20  C   UNL     1       9.834 -10.221  17.783  1.00  0.00    +0.034 C 
ATOM     21  C   UNL     1       9.494  -8.858  18.387  1.00  0.00    +0.014 C 
ATOM     22  C   UNL     1       9.361 -10.299  16.329  1.00  0.00    +0.014 C 
ENDBRANCH  14  20
ENDBRANCH   1  13
BRANCH   5  23
ATOM     23  N   UNL     1      15.480 -11.336  19.931  1.00  0.00    -0.350 N 
ATOM     24  C   UNL     1      16.018 -11.222  21.311  1.00  0.00    +0.140 C 
ATOM     25  C   UNL     1      16.242 -10.545  18.906  1.00  0.00    +0.100 C 
ATOM     26  C   UNL     1      16.452  -9.790  21.646  1.00  0.00    +0.141 C 
ATOM     27  C   UNL     1      17.599 -10.035  19.454  1.00  0.00    +0.144 C 
ATOM     28  N   UNL     1      17.452  -9.276  20.699  1.00  0.00    -0.335 N 
ATOM     29  C   UNL     1      15.426  -9.359  18.370  1.00  0.00    +0.033 C 
BRANCH  28  30
ATOM     30  C   UNL     1      18.275  -8.186  20.915  1.00  0.00    +0.246 C 
ATOM     31  O   UNL     1      19.195  -7.889  20.155  1.00  0.00    -0.270 OA
BRANCH  30  32
ATOM     32  C   UNL     1      17.997  -7.360  22.122  1.00  0.00    +0.063 C 
ATOM     33  C   UNL     1      18.687  -6.234  22.348  1.00  0.00    +0.014 C 
ENDBRANCH  30  32
ENDBRANCH  28  30
ENDBRANCH   5  23
BRANCH  10  34
ATOM     34  C   UNL     1      10.355  -8.479  22.814  1.00  0.00    +0.081 A 
ATOM     35  C   UNL     1       9.420  -9.148  23.619  1.00  0.00    +0.128 A 
ATOM     36  C   UNL     1      10.278  -7.082  22.758  1.00  0.00    +0.136 A 
ATOM     37  C   UNL     1       8.452  -8.448  24.347  1.00  0.00    +0.047 A 
ATOM     38  C   UNL     1       9.319  -6.371  23.478  1.00  0.00    +0.040 A 
ATOM     39  C   UNL     1       8.406  -7.056  24.277  1.00  0.00    +0.007 A 
ATOM     40  F   UNL     1      11.122  -6.392  21.975  1.00  0.00    -0.206 F 
BRANCH  35  41
ATOM     41  O   UNL     1       9.460 -10.516  23.689  1.00  0.00    -0.507 OA
ATOM     42  H   UNL     1      10.336 -10.823  23.402  1.00  0.00    +0.293 HD
ENDBRANCH  35  41
ENDBRANCH  10  34
TORSDOF 7
ENDMDL
MODEL 3
REMARK VINA RESULT:    -8.631      3.062      5.312
REMARK INTER + INTRA:         -12.270
REMARK INTER:                 -10.027
REMARK INTRA:                  -2.243
REMARK UNBOUND:                -0.359
REMARK SMILES C=CC(=O)N1CCN(c2nc(=O)n(-c3c(C)ccnc3C(C)C)c3nc(-c4c(O)cccc4F)c(F)cc23)[C@@H](C)C1
REMARK SMILES IDX 13 1 11 2 12 3 10 4 9 5 38 6 37 7 35 8 36 9 26 10 25 11
REMARK SMILES IDX 24 12 14 13 20 14 19 15 18 16 15 17 17 18 16 19 21 20 22 21
REMARK SMILES IDX 23 22 8 23 7 24 39 25 6 26 41 27 5 28 40 29 3 30 4 31 2 32
REMARK SMILES IDX 1 33 27 34 28 35 33 36 30 37 32 38 31 39 34 40 29 41
REMARK H PARENT 29 42
ROOT
ATOM      1  N   UNL     1      10.696 -10.474  19.928  1.00  0.00    -0.242 N 
ATOM      2  C   UNL     1      11.483  -9.586  20.649  1.00  0.00    +0.355 C 
ATOM      3  O   UNL     1      11.010  -8.589  21.194  1.00  0.00    -0.245 OA
ATOM      4  N   UNL     1      12.835  -9.816  20.729  1.00  0.00    -0.175 NA
ATOM      5  C   UNL     1      13.391 -10.862  20.200  1.00  0.00    +0.145 C 
ATOM      6  C   UNL     1      12.584 -11.905  19.536  1.00  0.00    +0.064 A 
ATOM      7  C   UNL     1      13.121 -13.114  19.096  1.00  0.00    +0.057 A 
ATOM      8  C   UNL     1      12.285 -14.027  18.474  1.00  0.00    +0.150 A 
ATOM      9  F   UNL     1      12.798 -15.183  18.025  1.00  0.00    -0.205 F 
ATOM     10  C   UNL     1      10.939 -13.720  18.314  1.00  0.00    +0.115 A 
ATOM     11  N   UNL     1      10.408 -12.551  18.767  1.00  0.00    -0.226 NA
ATOM     12  C   UNL     1      11.227 -11.662  19.388  1.00  0.00    +0.153 A 
ENDROOT
BRANCH   1  13
ATOM     13  C   UNL     1       9.290 -10.292  19.841  1.00  0.00    +0.077 A 
ATOM     14  C   UNL     1       8.429 -10.734  20.867  1.00  0.00    +0.067 A 
ATOM     15  N   UNL     1       7.074 -10.609  20.782  1.00  0.00    -0.259 NA
ATOM     16  C   UNL     1       6.563 -10.035  19.676  1.00  0.00    +0.112 A 
ATOM     17  C   UNL     1       8.721  -9.685  18.699  1.00  0.00    -0.023 A 
ATOM     18  C   UNL     1       7.330  -9.570  18.625  1.00  0.00    +0.025 A 
ATOM     19  C   UNL     1       9.552  -9.187  17.550  1.00  0.00    +0.047 C 
BRANCH  14  20
ATOM     20  C   UNL     1       8.936 -11.473  22.096  1.00  0.00    +0.034 C 
ATOM     21  C   UNL     1       8.714 -12.977  21.932  1.00  0.00    +0.014 C 
ATOM     22  C   UNL     1       8.265 -10.965  23.376  1.00  0.00    +0.014 C 
ENDBRANCH  14  20
ENDBRANCH   1  13
BRANCH   5  23
ATOM     23  N   UNL     1      14.779 -10.998  20.265  1.00  0.00    -0.350 N 
ATOM     24  C   UNL     1      15.427 -10.696  21.566  1.00  0.00    +0.140 C 
ATOM     25  C   UNL     1      15.611 -10.642  19.066  1.00  0.00    +0.100 C 
ATOM     26  C   UNL     1      16.169  -9.354  21.546  1.00  0.00    +0.141 C 
ATOM     27  C   UNL     1      17.080 -10.330  19.448  1.00  0.00    +0.144 C 
ATOM     28  N   UNL     1      17.183  -9.296  20.483  1.00  0.00    -0.335 N 
ATOM     29  C   UNL     1      15.021  -9.459  18.284  1.00  0.00    +0.033 C 
BRANCH  28  30
ATOM     30  C   UNL     1      18.227  -8.392  20.418  1.00  0.00    +0.246 C 
ATOM     31  O   UNL     1      18.954  -8.288  19.432  1.00  0.00    -0.270 OA
BRANCH  30  32
ATOM     32  C   UNL     1      18.438  -7.521  21.607  1.00  0.00    +0.063 C 
ATOM     33  C   UNL     1      19.077  -6.350  21.485  1.00  0.00    +0.014 C 
ENDBRANCH  30  32
ENDBRANCH  28  30
ENDBRANCH   5  23
BRANCH  10  34
ATOM     34  C   UNL     1      10.007 -14.624  17.653  1.00  0.00    +0.081 A 
ATOM     35  C   UNL     1       9.613 -14.449  16.317  1.00  0.00    +0.128 A 
ATOM     36  C   UNL     1       9.468 -15.714  18.349  1.00  0.00    +0.136 A 
ATOM     37  C   UNL     1       8.724 -15.335  15.698  1.00  0.00    +0.047 A 
ATOM     38  C   UNL     1       8.583 -16.604  17.744  1.00  0.00    +0.040 A 
ATOM     39  C   UNL     1       8.212 -16.416  16.414  1.00  0.00    +0.007 A 
ATOM     40  F   UNL     1       9.780 -15.908  19.639  1.00  0.00    -0.206 F 
BRANCH  35  41
ATOM     41  O   UNL     1      10.112 -13.388  15.609  1.00  0.00    -0.507 OA
ATOM     42  H   UNL     1      11.082 -13.399  15.662  1.00  0.00    +0.293 HD
ENDBRANCH  35  41
ENDBRANCH  10  34
TORSDOF 7
ENDMDL
MODEL 4
REMARK VINA RESULT:    -8.489      3.908      8.752
REMARK INTER + INTRA:         -12.074
REMARK INTER:                  -9.884
REMARK INTRA:                  -2.190
REMARK UNBOUND:                -0.359
REMARK SMILES C=CC(=O)N1CCN(c2nc(=O)n(-c3c(C)ccnc3C(C)C)c3nc(-c4c(O)cccc4F)c(F)cc23)[C@@H](C)C1
REMARK SMILES IDX 13 1 11 2 12 3 10 4 9 5 38 6 37 7 35 8 36 9 26 10 25 11
REMARK SMILES IDX 24 12 14 13 20 14 19 15 18 16 15 17 17 18 16 19 21 20 22 21
REMARK SMILES IDX 23 22 8 23 7 24 39 25 6 26 41 27 5 28 40 29 3 30 4 31 2 32
REMARK SMILES IDX 1 33 27 34 28 35 33 36 30 37 32 38 31 39 34 40 29 41
REMARK H PARENT 29 42
ROOT
ATOM      1  N   UNL     1      11.467 -11.095  18.718  1.00  0.00    -0.242 N 
ATOM      2  C   UNL     1      11.220 -10.133  17.748  1.00  0.00    +0.355 C 
ATOM      3  O   UNL     1      11.998  -9.204  17.537  1.00  0.00    -0.245 OA
ATOM      4  N   UNL     1      10.053 -10.207  17.026  1.00  0.00    -0.175 NA
ATOM      5  C   UNL     1       9.204 -11.176  17.182  1.00  0.00    +0.145 C 
ATOM      6  C   UNL     1       9.479 -12.295  18.105  1.00  0.00    +0.064 A 
ATOM      7  C   UNL     1       8.671 -13.429  18.185  1.00  0.00    +0.057 A 
ATOM      8  C   UNL     1       9.006 -14.423  19.089  1.00  0.00    +0.150 A 
ATOM      9  F   UNL     1       8.221 -15.506  19.191  1.00  0.00    -0.205 F 
ATOM     10  C   UNL     1      10.137 -14.270  19.882  1.00  0.00    +0.115 A 
ATOM     11  N   UNL     1      10.942 -13.177  19.787  1.00  0.00    -0.226 NA
ATOM     12  C   UNL     1      10.619 -12.207  18.890  1.00  0.00    +0.153 A 
ENDROOT
BRANCH   1  13
ATOM     13  C   UNL     1      12.672 -11.075  19.470  1.00  0.00    +0.077 A 
ATOM     14  C   UNL     1      12.756 -10.389  20.700  1.00  0.00    +0.067 A 
ATOM     15  N   UNL     1      13.915 -10.319  21.414  1.00  0.00    -0.259 NA
ATOM     16  C   UNL     1      15.001 -10.939  20.915  1.00  0.00    +0.112 A 
ATOM     17  C   UNL     1      13.828 -11.721  18.979  1.00  0.00    -0.023 A 
ATOM     18  C   UNL     1      15.009 -11.636  19.722  1.00  0.00    +0.025 A 
ATOM     19  C   UNL     1      13.842 -12.473  17.678  1.00  0.00    +0.047 C 
BRANCH  14  20
ATOM     20  C   UNL     1      11.593  -9.592  21.271  1.00  0.00    +0.034 C 
ATOM     21  C   UNL     1      12.113  -8.517  22.227  1.00  0.00    +0.014 C 
ATOM     22  C   UNL     1      10.583 -10.499  21.980  1.00  0.00    +0.014 C 
ENDBRANCH  14  20
ENDBRANCH   1  13
BRANCH   5  23
ATOM     23  N   UNL     1       8.009 -11.153  16.460  1.00  0.00    -0.350 N 
ATOM     24  C   UNL     1       8.110 -10.941  14.994  1.00  0.00    +0.140 C 
ATOM     25  C   UNL     1       6.781 -10.553  17.085  1.00  0.00    +0.100 C 
ATOM     26  C   UNL     1       7.678  -9.529  14.581  1.00  0.00    +0.141 C 
ATOM     27  C   UNL     1       5.740 -10.118  16.023  1.00  0.00    +0.144 C 
ATOM     28  N   UNL     1       6.309  -9.217  15.015  1.00  0.00    -0.335 N 
ATOM     29  C   UNL     1       7.120  -9.360  17.991  1.00  0.00    +0.033 C 
BRANCH  28  30
ATOM     30  C   UNL     1       5.522  -8.194  14.519  1.00  0.00    +0.246 C 
ATOM     31  O   UNL     1       4.967  -8.256  13.424  1.00  0.00    -0.270 OA
BRANCH  30  32
ATOM     32  C   UNL     1       5.359  -6.991  15.382  1.00  0.00    +0.063 C 
ATOM     33  C   UNL     1       6.413  -6.216  15.671  1.00  0.00    +0.014 C 
ENDBRANCH  30  32
ENDBRANCH  28  30
ENDBRANCH   5  23
BRANCH  10  34
ATOM     34  C   UNL     1      10.539 -15.266  20.867  1.00  0.00    +0.081 A 
ATOM     35  C   UNL     1      10.162 -15.180  22.217  1.00  0.00    +0.128 A 
ATOM     36  C   UNL     1      11.327 -16.358  20.485  1.00  0.00    +0.136 A 
ATOM     37  C   UNL     1      10.550 -16.152  23.145  1.00  0.00    +0.047 A 
ATOM     38  C   UNL     1      11.720 -17.335  21.398  1.00  0.00    +0.040 A 
ATOM     39  C   UNL     1      11.328 -17.233  22.731  1.00  0.00    +0.007 A 
ATOM     40  F   UNL     1      11.748 -16.472  19.215  1.00  0.00    -0.206 F 
BRANCH  35  41
ATOM     41  O   UNL     1       9.400 -14.119  22.629  1.00  0.00    -0.507 OA
ATOM     42  H   UNL     1       9.171 -14.237  23.566  1.00  0.00    +0.293 HD
ENDBRANCH  35  41
ENDBRANCH  10  34
TORSDOF 7
ENDMDL
MODEL 5
REMARK VINA RESULT:    -8.060      2.782      7.308
REMARK INTER + INTRA:         -11.481
REMARK INTER:                 -10.154
REMARK INTRA:                  -1.328
REMARK UNBOUND:                -0.359
REMARK SMILES C=CC(=O)N1CCN(c2nc(=O)n(-c3c(C)ccnc3C(C)C)c3nc(-c4c(O)cccc4F)c(F)cc23)[C@@H](C)C1
REMARK SMILES IDX 13 1 11 2 12 3 10 4 9 5 38 6 37 7 35 8 36 9 26 10 25 11
REMARK SMILES IDX 24 12 14 13 20 14 19 15 18 16 15 17 17 18 16 19 21 20 22 21
REMARK SMILES IDX 23 22 8 23 7 24 39 25 6 26 41 27 5 28 40 29 3 30 4 31 2 32
REMARK SMILES IDX 1 33 27 34 28 35 33 36 30 37 32 38 31 39 34 40 29 41
REMARK H PARENT 29 42
ROOT
ATOM      1  N   UNL     1      10.193 -11.434  20.057  1.00  0.00    -0.242 N 
ATOM      2  C   UNL     1       9.001 -11.549  20.761  1.00  0.00    +0.355 C 
ATOM      3  O   UNL     1       8.063 -12.229  20.349  1.00  0.00    -0.245 OA
ATOM      4  N   UNL     1       8.861 -10.856  21.939  1.00  0.00    -0.175 NA
ATOM      5  C   UNL     1       9.822 -10.143  22.441  1.00  0.00    +0.145 C 
ATOM      6  C   UNL     1      11.152 -10.092  21.802  1.00  0.00    +0.064 A 
ATOM      7  C   UNL     1      12.253  -9.469  22.390  1.00  0.00    +0.057 A 
ATOM      8  C   UNL     1      13.459  -9.465  21.707  1.00  0.00    +0.150 A 
ATOM      9  F   UNL     1      14.516  -8.847  22.253  1.00  0.00    -0.205 F 
ATOM     10  C   UNL     1      13.541 -10.086  20.467  1.00  0.00    +0.115 A 
ATOM     11  N   UNL     1      12.475 -10.717  19.904  1.00  0.00    -0.226 NA
ATOM     12  C   UNL     1      11.296 -10.731  20.580  1.00  0.00    +0.153 A 
ENDROOT
BRANCH   1  13
ATOM     13  C   UNL     1      10.393 -12.154  18.848  1.00  0.00    +0.077 A 
ATOM     14  C   UNL     1       9.972 -11.632  17.607  1.00  0.00    +0.067 A 
ATOM     15  N   UNL     1      10.114 -12.327  16.443  1.00  0.00    -0.259 NA
ATOM     16  C   UNL     1      10.686 -13.545  16.501  1.00  0.00    +0.112 A 
ATOM     17  C   UNL     1      10.997 -13.430  18.873  1.00  0.00    -0.023 A 
ATOM     18  C   UNL     1      11.131 -14.131  17.671  1.00  0.00    +0.025 A 
ATOM     19  C   UNL     1      11.474 -14.075  20.145  1.00  0.00    +0.047 C 
BRANCH  14  20
ATOM     20  C   UNL     1       9.237 -10.306  17.486  1.00  0.00    +0.034 C 
ATOM     21  C   UNL     1       8.591 -10.190  16.105  1.00  0.00    +0.014 C 
ATOM     22  C   UNL     1      10.170  -9.120  17.746  1.00  0.00    +0.014 C 
ENDBRANCH  14  20
ENDBRANCH   1  13
BRANCH   5  23
ATOM     23  N   UNL     1       9.588  -9.414  23.608  1.00  0.00    -0.350 N 
ATOM     24  C   UNL     1       8.528  -9.919  24.519  1.00  0.00    +0.140 C 
ATOM     25  C   UNL     1       9.712  -7.917  23.580  1.00  0.00    +0.100 C 
ATOM     26  C   UNL     1       7.255  -9.067  24.455  1.00  0.00    +0.141 C 
ATOM     27  C   UNL     1       8.924  -7.245  24.733  1.00  0.00    +0.144 C 
ATOM     28  N   UNL     1       7.517  -7.654  24.764  1.00  0.00    -0.335 N 
ATOM     29  C   UNL     1       9.259  -7.326  22.236  1.00  0.00    +0.033 C 
BRANCH  28  30
ATOM     30  C   UNL     1       6.561  -6.720  25.121  1.00  0.00    +0.246 C 
ATOM     31  O   UNL     1       6.378  -6.370  26.284  1.00  0.00    -0.270 OA
BRANCH  30  32
ATOM     32  C   UNL     1       5.751  -6.132  24.019  1.00  0.00    +0.063 C 
ATOM     33  C   UNL     1       4.586  -5.525  24.283  1.00  0.00    +0.014 C 
ENDBRANCH  30  32
ENDBRANCH  28  30
ENDBRANCH   5  23
BRANCH  10  34
ATOM     34  C   UNL     1      14.772 -10.104  19.685  1.00  0.00    +0.081 A 
ATOM     35  C   UNL     1      14.821  -9.660  18.354  1.00  0.00    +0.128 A 
ATOM     36  C   UNL     1      15.962 -10.574  20.254  1.00  0.00    +0.136 A 
ATOM     37  C   UNL     1      16.014  -9.676  17.625  1.00  0.00    +0.047 A 
ATOM     38  C   UNL     1      17.158 -10.595  19.539  1.00  0.00    +0.040 A 
ATOM     39  C   UNL     1      17.185 -10.142  18.222  1.00  0.00    +0.007 A 
ATOM     40  F   UNL     1      15.966 -11.046  21.511  1.00  0.00    -0.206 F 
BRANCH  35  41
ATOM     41  O   UNL     1      13.673  -9.203  17.762  1.00  0.00    -0.507 OA
ATOM     42  H   UNL     1      13.748  -8.244  17.623  1.00  0.00    +0.293 HD
ENDBRANCH  35  41
ENDBRANCH  10  34
TORSDOF 7
ENDMDL
MODEL 6
REMARK VINA RESULT:    -7.996      2.860      6.988
REMARK INTER + INTRA:         -11.394
REMARK INTER:                  -9.864
REMARK INTRA:                  -1.530
REMARK UNBOUND:                -0.359
REMARK SMILES C=CC(=O)N1CCN(c2nc(=O)n(-c3c(C)ccnc3C(C)C)c3nc(-c4c(O)cccc4F)c(F)cc23)[C@@H](C)C1
REMARK SMILES IDX 13 1 11 2 12 3 10 4 9 5 38 6 37 7 35 8 36 9 26 10 25 11
REMARK SMILES IDX 24 12 14 13 20 14 19 15 18 16 15 17 17 18 16 19 21 20 22 21
REMARK SMILES IDX 23 22 8 23 7 24 39 25 6 26 41 27 5 28 40 29 3 30 4 31 2 32
REMARK SMILES IDX 1 33 27 34 28 35 33 36 30 37 32 38 31 39 34 40 29 41
REMARK H PARENT 29 42
ROOT
ATOM      1  N   UNL     1       9.882 -10.811  20.131  1.00  0.00    -0.242 N 
ATOM      2  C   UNL     1       8.712 -10.851  20.878  1.00  0.00    +0.355 C 
ATOM      3  O   UNL     1       7.680 -11.362  20.447  1.00  0.00    -0.245 OA
ATOM      4  N   UNL     1       8.704 -10.272  22.124  1.00  0.00    -0.175 NA
ATOM      5  C   UNL     1       9.766  -9.740  22.647  1.00  0.00    +0.145 C 
ATOM      6  C   UNL     1      11.068  -9.787  21.951  1.00  0.00    +0.064 A 
ATOM      7  C   UNL     1      12.259  -9.370  22.544  1.00  0.00    +0.057 A 
ATOM      8  C   UNL     1      13.430  -9.443  21.807  1.00  0.00    +0.150 A 
ATOM      9  F   UNL     1      14.577  -9.021  22.360  1.00  0.00    -0.205 F 
ATOM     10  C   UNL     1      13.389  -9.937  20.509  1.00  0.00    +0.115 A 
ATOM     11  N   UNL     1      12.231 -10.370  19.939  1.00  0.00    -0.226 NA
ATOM     12  C   UNL     1      11.085 -10.308  20.667  1.00  0.00    +0.153 A 
ENDROOT
BRANCH   1  13
ATOM     13  C   UNL     1       9.946 -11.420  18.849  1.00  0.00    +0.077 A 
ATOM     14  C   UNL     1      10.290 -12.780  18.701  1.00  0.00    +0.067 A 
ATOM     15  N   UNL     1      10.401 -13.370  17.477  1.00  0.00    -0.259 NA
ATOM     16  C   UNL     1      10.162 -12.615  16.388  1.00  0.00    +0.112 A 
ATOM     17  C   UNL     1       9.693 -10.658  17.687  1.00  0.00    -0.023 A 
ATOM     18  C   UNL     1       9.816 -11.278  16.440  1.00  0.00    +0.025 A 
ATOM     19  C   UNL     1       9.326  -9.202  17.740  1.00  0.00    +0.047 C 
BRANCH  14  20
ATOM     20  C   UNL     1      10.662 -13.662  19.883  1.00  0.00    +0.034 C 
ATOM     21  C   UNL     1      11.784 -14.623  19.487  1.00  0.00    +0.014 C 
ATOM     22  C   UNL     1       9.451 -14.436  20.411  1.00  0.00    +0.014 C 
ENDBRANCH  14  20
ENDBRANCH   1  13
BRANCH   5  23
ATOM     23  N   UNL     1       9.668  -9.113  23.890  1.00  0.00    -0.350 N 
ATOM     24  C   UNL     1       8.653  -9.643  24.836  1.00  0.00    +0.140 C 
ATOM     25  C   UNL     1       9.883  -7.629  23.987  1.00  0.00    +0.100 C 
ATOM     26  C   UNL     1       7.435  -8.719  24.955  1.00  0.00    +0.141 C 
ATOM     27  C   UNL     1       9.231  -7.027  25.257  1.00  0.00    +0.144 C 
ATOM     28  N   UNL     1       7.807  -7.359  25.368  1.00  0.00    -0.335 N 
ATOM     29  C   UNL     1       9.366  -6.890  22.744  1.00  0.00    +0.033 C 
BRANCH  28  30
ATOM     30  C   UNL     1       6.943  -6.412  25.885  1.00  0.00    +0.246 C 
ATOM     31  O   UNL     1       6.613  -6.391  27.069  1.00  0.00    -0.270 OA
BRANCH  30  32
ATOM     32  C   UNL     1       6.421  -5.388  24.938  1.00  0.00    +0.063 C 
ATOM     33  C   UNL     1       5.619  -5.746  23.926  1.00  0.00    +0.014 C 
ENDBRANCH  30  32
ENDBRANCH  28  30
ENDBRANCH   5  23
BRANCH  10  34
ATOM     34  C   UNL     1      14.578 -10.025  19.670  1.00  0.00    +0.081 A 
ATOM     35  C   UNL     1      14.588  -9.590  18.336  1.00  0.00    +0.128 A 
ATOM     36  C   UNL     1      15.766 -10.558  20.186  1.00  0.00    +0.136 A 
ATOM     37  C   UNL     1      15.743  -9.674  17.552  1.00  0.00    +0.047 A 
ATOM     38  C   UNL     1      16.924 -10.647  19.416  1.00  0.00    +0.040 A 
ATOM     39  C   UNL     1      16.914 -10.201  18.096  1.00  0.00    +0.007 A 
ATOM     40  F   UNL     1      15.804 -11.024  21.444  1.00  0.00    -0.206 F 
BRANCH  35  41
ATOM     41  O   UNL     1      13.440  -9.073  17.795  1.00  0.00    -0.507 OA
ATOM     42  H   UNL     1      13.675  -8.386  17.149  1.00  0.00    +0.293 HD
ENDBRANCH  35  41
ENDBRANCH  10  34
TORSDOF 7
ENDMDL
MODEL 7
REMARK VINA RESULT:    -7.896      3.291      5.685
REMARK INTER + INTRA:         -11.255
REMARK INTER:                  -9.146
REMARK INTRA:                  -2.110
REMARK UNBOUND:                -0.359
REMARK SMILES C=CC(=O)N1CCN(c2nc(=O)n(-c3c(C)ccnc3C(C)C)c3nc(-c4c(O)cccc4F)c(F)cc23)[C@@H](C)C1
REMARK SMILES IDX 13 1 11 2 12 3 10 4 9 5 38 6 37 7 35 8 36 9 26 10 25 11
REMARK SMILES IDX 24 12 14 13 20 14 19 15 18 16 15 17 17 18 16 19 21 20 22 21
REMARK SMILES IDX 23 22 8 23 7 24 39 25 6 26 41 27 5 28 40 29 3 30 4 31 2 32
REMARK SMILES IDX 1 33 27 34 28 35 33 36 30 37 32 38 31 39 34 40 29 41
REMARK H PARENT 29 42
ROOT
ATOM      1  N   UNL     1      10.468 -10.781  20.203  1.00  0.00    -0.242 N 
ATOM      2  C   UNL     1      11.270  -9.895  20.911  1.00  0.00    +0.355 C 
ATOM      3  O   UNL     1      10.800  -8.947  21.538  1.00  0.00    -0.245 OA
ATOM      4  N   UNL     1      12.633 -10.071  20.883  1.00  0.00    -0.175 NA
ATOM      5  C   UNL     1      13.189 -11.066  20.263  1.00  0.00    +0.145 C 
ATOM      6  C   UNL     1      12.377 -12.109  19.605  1.00  0.00    +0.064 A 
ATOM      7  C   UNL     1      12.928 -13.272  19.067  1.00  0.00    +0.057 A 
ATOM      8  C   UNL     1      12.085 -14.189  18.460  1.00  0.00    +0.150 A 
ATOM      9  F   UNL     1      12.608 -15.298  17.918  1.00  0.00    -0.205 F 
ATOM     10  C   UNL     1      10.720 -13.932  18.413  1.00  0.00    +0.115 A 
ATOM     11  N   UNL     1      10.178 -12.810  18.961  1.00  0.00    -0.226 NA
ATOM     12  C   UNL     1      11.004 -11.918  19.567  1.00  0.00    +0.153 A 
ENDROOT
BRANCH   1  13
ATOM     13  C   UNL     1       9.053 -10.655  20.226  1.00  0.00    +0.077 A 
ATOM     14  C   UNL     1       8.368  -9.917  19.237  1.00  0.00    +0.067 A 
ATOM     15  N   UNL     1       7.016  -9.747  19.267  1.00  0.00    -0.259 NA
ATOM     16  C   UNL     1       6.331 -10.316  20.277  1.00  0.00    +0.112 A 
ATOM     17  C   UNL     1       8.304 -11.246  21.266  1.00  0.00    -0.023 A 
ATOM     18  C   UNL     1       6.918 -11.058  21.285  1.00  0.00    +0.025 A 
ATOM     19  C   UNL     1       8.941 -12.045  22.368  1.00  0.00    +0.047 C 
BRANCH  14  20
ATOM     20  C   UNL     1       9.091  -9.174  18.125  1.00  0.00    +0.034 C 
ATOM     21  C   UNL     1       9.445  -7.759  18.585  1.00  0.00    +0.014 C 
ATOM     22  C   UNL     1       8.258  -9.131  16.842  1.00  0.00    +0.014 C 
ENDBRANCH  14  20
ENDBRANCH   1  13
BRANCH   5  23
ATOM     23  N   UNL     1      14.582 -11.146  20.222  1.00  0.00    -0.350 N 
ATOM     24  C   UNL     1      15.319 -10.736  21.445  1.00  0.00    +0.140 C 
ATOM     25  C   UNL     1      15.301 -10.837  18.939  1.00  0.00    +0.100 C 
ATOM     26  C   UNL     1      15.999  -9.372  21.281  1.00  0.00    +0.141 C 
ATOM     27  C   UNL     1      16.781 -10.446  19.180  1.00  0.00    +0.144 C 
ATOM     28  N   UNL     1      16.921  -9.345  20.137  1.00  0.00    -0.335 N 
ATOM     29  C   UNL     1      14.600  -9.730  18.138  1.00  0.00    +0.033 C 
BRANCH  28  30
ATOM     30  C   UNL     1      17.917  -8.408  19.931  1.00  0.00    +0.246 C 
ATOM     31  O   UNL     1      18.359  -8.143  18.815  1.00  0.00    -0.270 OA
BRANCH  30  32
ATOM     32  C   UNL     1      18.442  -7.707  21.137  1.00  0.00    +0.063 C 
ATOM     33  C   UNL     1      19.750  -7.742  21.425  1.00  0.00    +0.014 C 
ENDBRANCH  30  32
ENDBRANCH  28  30
ENDBRANCH   5  23
BRANCH  10  34
ATOM     34  C   UNL     1       9.777 -14.842  17.774  1.00  0.00    +0.081 A 
ATOM     35  C   UNL     1       8.891 -15.642  18.511  1.00  0.00    +0.128 A 
ATOM     36  C   UNL     1       9.732 -14.943  16.378  1.00  0.00    +0.136 A 
ATOM     37  C   UNL     1       7.987 -16.502  17.878  1.00  0.00    +0.047 A 
ATOM     38  C   UNL     1       8.836 -15.795  15.733  1.00  0.00    +0.040 A 
ATOM     39  C   UNL     1       7.959 -16.574  16.486  1.00  0.00    +0.007 A 
ATOM     40  F   UNL     1      10.582 -14.230  15.623  1.00  0.00    -0.206 F 
BRANCH  35  41
ATOM     41  O   UNL     1       8.915 -15.577  19.880  1.00  0.00    -0.507 OA
ATOM     42  H   UNL     1       9.836 -15.494  20.177  1.00  0.00    +0.293 HD
ENDBRANCH  35  41
ENDBRANCH  10  34
TORSDOF 7
ENDMDL
MODEL 8
REMARK VINA RESULT:    -7.518      4.055      9.082
REMARK INTER + INTRA:         -10.734
REMARK INTER:                  -8.352
REMARK INTRA:                  -2.382
REMARK UNBOUND:                -0.359
REMARK SMILES C=CC(=O)N1CCN(c2nc(=O)n(-c3c(C)ccnc3C(C)C)c3nc(-c4c(O)cccc4F)c(F)cc23)[C@@H](C)C1
REMARK SMILES IDX 13 1 11 2 12 3 10 4 9 5 38 6 37 7 35 8 36 9 26 10 25 11
REMARK SMILES IDX 24 12 14 13 20 14 19 15 18 16 15 17 17 18 16 19 21 20 22 21
REMARK SMILES IDX 23 22 8 23 7 24 39 25 6 26 41 27 5 28 40 29 3 30 4 31 2 32
REMARK SMILES IDX 1 33 27 34 28 35 33 36 30 37 32 38 31 39 34 40 29 41
REMARK H PARENT 29 42
ROOT
ATOM      1  N   UNL     1      10.672 -10.744  18.905  1.00  0.00    -0.242 N 
ATOM      2  C   UNL     1      10.343  -9.821  17.921  1.00  0.00    +0.355 C 
ATOM      3  O   UNL     1      10.910  -8.733  17.832  1.00  0.00    -0.245 OA
ATOM      4  N   UNL     1       9.332 -10.124  17.042  1.00  0.00    -0.175 NA
ATOM      5  C   UNL     1       8.714 -11.265  17.066  1.00  0.00    +0.145 C 
ATOM      6  C   UNL     1       9.112 -12.332  18.005  1.00  0.00    +0.064 A 
ATOM      7  C   UNL     1       8.581 -13.621  17.958  1.00  0.00    +0.057 A 
ATOM      8  C   UNL     1       9.010 -14.553  18.889  1.00  0.00    +0.150 A 
ATOM      9  F   UNL     1       8.488 -15.787  18.867  1.00  0.00    -0.205 F 
ATOM     10  C   UNL     1       9.960 -14.183  19.834  1.00  0.00    +0.115 A 
ATOM     11  N   UNL     1      10.498 -12.934  19.865  1.00  0.00    -0.226 NA
ATOM     12  C   UNL     1      10.085 -12.024  18.943  1.00  0.00    +0.153 A 
ENDROOT
BRANCH   1  13
ATOM     13  C   UNL     1      11.729 -10.485  19.819  1.00  0.00    +0.077 A 
ATOM     14  C   UNL     1      13.069 -10.774  19.489  1.00  0.00    +0.067 A 
ATOM     15  N   UNL     1      14.091 -10.576  20.369  1.00  0.00    -0.259 NA
ATOM     16  C   UNL     1      13.790 -10.079  21.584  1.00  0.00    +0.112 A 
ATOM     17  C   UNL     1      11.448  -9.956  21.098  1.00  0.00    -0.023 A 
ATOM     18  C   UNL     1      12.507  -9.763  21.990  1.00  0.00    +0.025 A 
ATOM     19  C   UNL     1      10.053  -9.621  21.546  1.00  0.00    +0.047 C 
BRANCH  14  20
ATOM     20  C   UNL     1      13.465 -11.422  18.171  1.00  0.00    +0.034 C 
ATOM     21  C   UNL     1      13.853 -12.884  18.402  1.00  0.00    +0.014 C 
ATOM     22  C   UNL     1      14.606 -10.662  17.490  1.00  0.00    +0.014 C 
ENDBRANCH  14  20
ENDBRANCH   1  13
BRANCH   5  23
ATOM     23  N   UNL     1       7.653 -11.480  16.184  1.00  0.00    -0.350 N 
ATOM     24  C   UNL     1       7.883 -11.143  14.756  1.00  0.00    +0.140 C 
ATOM     25  C   UNL     1       6.245 -11.244  16.652  1.00  0.00    +0.100 C 
ATOM     26  C   UNL     1       7.167  -9.851  14.343  1.00  0.00    +0.141 C 
ATOM     27  C   UNL     1       5.272 -10.999  15.471  1.00  0.00    +0.144 C 
ATOM     28  N   UNL     1       5.720  -9.915  14.591  1.00  0.00    -0.335 N 
ATOM     29  C   UNL     1       6.156 -10.074  17.644  1.00  0.00    +0.033 C 
BRANCH  28  30
ATOM     30  C   UNL     1       4.771  -9.080  14.030  1.00  0.00    +0.246 C 
ATOM     31  O   UNL     1       3.756  -9.503  13.482  1.00  0.00    -0.270 OA
BRANCH  30  32
ATOM     32  C   UNL     1       5.024  -7.615  14.123  1.00  0.00    +0.063 C 
ATOM     33  C   UNL     1       5.030  -7.003  15.314  1.00  0.00    +0.014 C 
ENDBRANCH  30  32
ENDBRANCH  28  30
ENDBRANCH   5  23
BRANCH  10  34
ATOM     34  C   UNL     1      10.443 -15.105  20.855  1.00  0.00    +0.081 A 
ATOM     35  C   UNL     1      10.033 -15.022  22.195  1.00  0.00    +0.128 A 
ATOM     36  C   UNL     1      11.347 -16.120  20.517  1.00  0.00    +0.136 A 
ATOM     37  C   UNL     1      10.501 -15.923  23.157  1.00  0.00    +0.047 A 
ATOM     38  C   UNL     1      11.821 -17.025  21.465  1.00  0.00    +0.040 A 
ATOM     39  C   UNL     1      11.394 -16.928  22.788  1.00  0.00    +0.007 A 
ATOM     40  F   UNL     1      11.802 -16.223  19.259  1.00  0.00    -0.206 F 
BRANCH  35  41
ATOM     41  O   UNL     1       9.156 -14.035  22.563  1.00  0.00    -0.507 OA
ATOM     42  H   UNL     1       8.726 -13.679  21.768  1.00  0.00    +0.293 HD
ENDBRANCH  35  41
ENDBRANCH  10  34
TORSDOF 7
ENDMDL
MODEL 9
REMARK VINA RESULT:    -7.439      2.798      4.353
REMARK INTER + INTRA:         -10.625
REMARK INTER:                  -8.327
REMARK INTRA:                  -2.298
REMARK UNBOUND:                -0.359
REMARK SMILES C=CC(=O)N1CCN(c2nc(=O)n(-c3c(C)ccnc3C(C)C)c3nc(-c4c(O)cccc4F)c(F)cc23)[C@@H](C)C1
REMARK SMILES IDX 13 1 11 2 12 3 10 4 9 5 38 6 37 7 35 8 36 9 26 10 25 11
REMARK SMILES IDX 24 12 14 13 20 14 19 15 18 16 15 17 17 18 16 19 21 20 22 21
REMARK SMILES IDX 23 22 8 23 7 24 39 25 6 26 41 27 5 28 40 29 3 30 4 31 2 32
REMARK SMILES IDX 1 33 27 34 28 35 33 36 30 37 32 38 31 39 34 40 29 41
REMARK H PARENT 29 42
ROOT
ATOM      1  N   UNL     1      10.781 -13.493  19.007  1.00  0.00    -0.242 N 
ATOM      2  C   UNL     1      12.096 -13.930  19.095  1.00  0.00    +0.355 C 
ATOM      3  O   UNL     1      12.383 -15.123  19.183  1.00  0.00    -0.245 OA
ATOM      4  N   UNL     1      13.103 -12.995  19.114  1.00  0.00    -0.175 NA
ATOM      5  C   UNL     1      12.869 -11.724  18.997  1.00  0.00    +0.145 C 
ATOM      6  C   UNL     1      11.502 -11.215  18.770  1.00  0.00    +0.064 A 
ATOM      7  C   UNL     1      11.229  -9.878  18.483  1.00  0.00    +0.057 A 
ATOM      8  C   UNL     1       9.912  -9.492  18.294  1.00  0.00    +0.150 A 
ATOM      9  F   UNL     1       9.637  -8.204  18.043  1.00  0.00    -0.205 F 
ATOM     10  C   UNL     1       8.904 -10.445  18.385  1.00  0.00    +0.115 A 
ATOM     11  N   UNL     1       9.171 -11.755  18.638  1.00  0.00    -0.226 NA
ATOM     12  C   UNL     1      10.465 -12.134  18.811  1.00  0.00    +0.153 A 
ENDROOT
BRANCH   1  13
ATOM     13  C   UNL     1       9.709 -14.424  18.956  1.00  0.00    +0.077 A 
ATOM     14  C   UNL     1       9.058 -14.855  20.131  1.00  0.00    +0.067 A 
ATOM     15  N   UNL     1       8.059 -15.782  20.107  1.00  0.00    -0.259 NA
ATOM     16  C   UNL     1       7.691 -16.282  18.912  1.00  0.00    +0.112 A 
ATOM     17  C   UNL     1       9.293 -14.962  17.718  1.00  0.00    -0.023 A 
ATOM     18  C   UNL     1       8.270 -15.914  17.712  1.00  0.00    +0.025 A 
ATOM     19  C   UNL     1       9.927 -14.571  16.413  1.00  0.00    +0.047 C 
BRANCH  14  20
ATOM     20  C   UNL     1       9.488 -14.400  21.517  1.00  0.00    +0.034 C 
ATOM     21  C   UNL     1       9.523 -15.593  22.473  1.00  0.00    +0.014 C 
ATOM     22  C   UNL     1       8.569 -13.301  22.058  1.00  0.00    +0.014 C 
ENDBRANCH  14  20
ENDBRANCH   1  13
BRANCH   5  23
ATOM     23  N   UNL     1      13.935 -10.827  19.090  1.00  0.00    -0.350 N 
ATOM     24  C   UNL     1      15.244 -11.275  18.550  1.00  0.00    +0.140 C 
ATOM     25  C   UNL     1      14.040  -9.928  20.289  1.00  0.00    +0.100 C 
ATOM     26  C   UNL     1      16.239 -11.629  19.662  1.00  0.00    +0.141 C 
ATOM     27  C   UNL     1      15.486  -9.416  20.508  1.00  0.00    +0.144 C 
ATOM     28  N   UNL     1      16.462 -10.507  20.585  1.00  0.00    -0.335 N 
ATOM     29  C   UNL     1      13.537 -10.613  21.569  1.00  0.00    +0.033 C 
BRANCH  28  30
ATOM     30  C   UNL     1      17.525 -10.388  21.461  1.00  0.00    +0.246 C 
ATOM     31  O   UNL     1      18.696 -10.501  21.103  1.00  0.00    -0.270 OA
BRANCH  30  32
ATOM     32  C   UNL     1      17.196 -10.099  22.884  1.00  0.00    +0.063 C 
ATOM     33  C   UNL     1      16.725 -11.068  23.681  1.00  0.00    +0.014 C 
ENDBRANCH  30  32
ENDBRANCH  28  30
ENDBRANCH   5  23
BRANCH  10  34
ATOM     34  C   UNL     1       7.496 -10.108  18.217  1.00  0.00    +0.081 A 
ATOM     35  C   UNL     1       6.578 -10.171  19.277  1.00  0.00    +0.128 A 
ATOM     36  C   UNL     1       7.012  -9.704  16.966  1.00  0.00    +0.136 A 
ATOM     37  C   UNL     1       5.233  -9.833  19.097  1.00  0.00    +0.047 A 
ATOM     38  C   UNL     1       5.675  -9.364  16.772  1.00  0.00    +0.040 A 
ATOM     39  C   UNL     1       4.783  -9.426  17.841  1.00  0.00    +0.007 A 
ATOM     40  F   UNL     1       7.837  -9.662  15.908  1.00  0.00    -0.206 F 
BRANCH  35  41
ATOM     41  O   UNL     1       7.014 -10.572  20.513  1.00  0.00    -0.507 OA
ATOM     42  H   UNL     1       6.328 -10.374  21.172  1.00  0.00    +0.293 HD
ENDBRANCH  35  41
ENDBRANCH  10  34
TORSDOF 7
ENDMDL
