REMARK SMILES C=CC(=O)N1CCN(c2nc(=O)n(-c3c(C)ccnc3C(C)C)c3nc(-c4c(O)cccc4F)c(F)cc23)[C@@H](C)C1
REMARK SMILES IDX 13 1 11 2 12 3 10 4 9 5 38 6 37 7 35 8 36 9 26 10 25 11
REMARK SMILES IDX 24 12 14 13 20 14 19 15 18 16 15 17 17 18 16 19 21 20 22 21
REMARK SMILES IDX 23 22 8 23 7 24 39 25 6 26 41 27 5 28 40 29 3 30 4 31 2 32
REMARK SMILES IDX 1 33 27 34 28 35 33 36 30 37 32 38 31 39 34 40 29 41
REMARK H PARENT 29 42
ROOT
ATOM      1  N   UNL     1      -1.106  -0.829  -0.997  1.00  0.00    -0.242 N 
ATOM      2  C   UNL     1      -0.058  -1.516  -1.595  1.00  0.00    +0.355 C 
ATOM      3  O   UNL     1      -0.222  -2.600  -2.152  1.00  0.00    -0.245 OA
ATOM      4  N   UNL     1       1.205  -0.978  -1.533  1.00  0.00    -0.175 NA
ATOM      5  C   UNL     1       1.440   0.174  -0.984  1.00  0.00    +0.145 C 
ATOM      6  C   UNL     1       0.343   1.006  -0.450  1.00  0.00    +0.064 A 
ATOM      7  C   UNL     1       0.533   2.311   0.003  1.00  0.00    +0.057 A 
ATOM      8  C   UNL     1      -0.557   3.010   0.496  1.00  0.00    +0.150 A 
ATOM      9  F   UNL     1      -0.380   4.257   0.957  1.00  0.00    -0.205 F 
ATOM     10  C   UNL     1      -1.805   2.399   0.517  1.00  0.00    +0.115 A 
ATOM     11  N   UNL     1      -1.997   1.135   0.051  1.00  0.00    -0.226 NA
ATOM     12  C   UNL     1      -0.929   0.455  -0.444  1.00  0.00    +0.153 A 
ENDROOT
BRANCH   1  13
ATOM     13  C   UNL     1      -2.433  -1.333  -1.059  1.00  0.00    +0.077 A 
ATOM     14  C   UNL     1      -3.054  -1.901   0.073  1.00  0.00    +0.067 A 
ATOM     15  N   UNL     1      -4.309  -2.431   0.022  1.00  0.00    -0.259 NA
ATOM     16  C   UNL     1      -4.962  -2.393  -1.155  1.00  0.00    +0.112 A 
ATOM     17  C   UNL     1      -3.149  -1.301  -2.276  1.00  0.00    -0.023 A 
ATOM     18  C   UNL     1      -4.433  -1.853  -2.312  1.00  0.00    +0.025 A 
ATOM     19  C   UNL     1      -2.573  -0.723  -3.538  1.00  0.00    +0.047 C 
BRANCH  14  20
ATOM     20  C   UNL     1      -2.337  -2.058   1.405  1.00  0.00    +0.034 C 
ATOM     21  C   UNL     1      -1.828  -3.492   1.560  1.00  0.00    +0.014 C 
ATOM     22  C   UNL     1      -3.242  -1.677   2.580  1.00  0.00    +0.014 C 
ENDBRANCH  14  20
ENDBRANCH   1  13
BRANCH   5  23
ATOM     23  N   UNL     1       2.757   0.629  -0.900  1.00  0.00    -0.350 N 
ATOM     24  C   UNL     1       3.649   0.332  -2.050  1.00  0.00    +0.140 C 
ATOM     25  C   UNL     1       3.452   0.634   0.432  1.00  0.00    +0.100 C 
ATOM     26  C   UNL     1       4.655  -0.780  -1.730  1.00  0.00    +0.141 C 
ATOM     27  C   UNL     1       4.995   0.637   0.284  1.00  0.00    +0.144 C 
ATOM     28  N   UNL     1       5.480  -0.462  -0.556  1.00  0.00    -0.335 N 
ATOM     29  C   UNL     1       3.022  -0.550   1.311  1.00  0.00    +0.033 C 
BRANCH  28  30
ATOM     30  C   UNL     1       6.674  -1.075  -0.224  1.00  0.00    +0.246 C 
ATOM     31  O   UNL     1       7.392  -0.678   0.691  1.00  0.00    -0.270 OA
BRANCH  30  32
ATOM     32  C   UNL     1       7.064  -2.268  -1.026  1.00  0.00    +0.063 C 
ATOM     33  C   UNL     1       8.313  -2.748  -0.964  1.00  0.00    +0.014 C 
ENDBRANCH  30  32
ENDBRANCH  28  30
ENDBRANCH   5  23
BRANCH  10  34
ATOM     34  C   UNL     1      -2.991   3.067   1.039  1.00  0.00    +0.081 A 
ATOM     35  C   UNL     1      -3.661   4.072   0.324  1.00  0.00    +0.128 A 
ATOM     36  C   UNL     1      -3.503   2.715   2.294  1.00  0.00    +0.136 A 
ATOM     37  C   UNL     1      -4.804   4.693   0.839  1.00  0.00    +0.047 A 
ATOM     38  C   UNL     1      -4.641   3.325   2.819  1.00  0.00    +0.040 A 
ATOM     39  C   UNL     1      -5.295   4.315   2.088  1.00  0.00    +0.007 A 
ATOM     40  F   UNL     1      -2.881   1.787   3.038  1.00  0.00    -0.206 F 
BRANCH  35  41
ATOM     41  O   UNL     1      -3.182   4.449  -0.903  1.00  0.00    -0.507 OA
ATOM     42  H   UNL     1      -3.782   5.109  -1.289  1.00  0.00    +0.293 HD
ENDBRANCH  35  41
ENDBRANCH  10  34
TORSDOF 7
