MODEL 1
REMARK VINA RESULT:   -12.330      0.000      0.000
REMARK INTER + INTRA:         -18.648
REMARK INTER:                 -17.376
REMARK INTRA:                  -1.272
REMARK UNBOUND:                -1.272
REMARK SMILES CCc1c(F)ccc2cc(O)cc(-c3ncc4c(N5CCC[C@@](C)(O)C5)nc(OC[C@@]56CCCN5C[C@H](F)C6)nc4c3F)c12
REMARK SMILES IDX 14 1 42 2 41 3 17 4 16 5 15 6 18 7 27 8 28 9 40 10 43 11
REMARK SMILES IDX 13 12 3 13 4 14 44 15 6 16 8 17 7 18 9 19 12 20 10 21 5 22
REMARK SMILES IDX 2 23 1 24 11 25 19 27 20 28 26 29 21 30 23 31 22 32 24 33
REMARK SMILES IDX 25 34 29 36 30 37 31 38 32 39 35 40 39 41 33 42 34 43 36 44
REMARK SMILES IDX 37 45 38 46
REMARK H PARENT 11 26 25 35
ROOT
ATOM      1  C   UNL     1     -19.096   3.786  24.274  1.00  0.00    +0.109 A 
ATOM      2  C   UNL     1     -19.701   4.846  23.605  1.00  0.00    +0.176 A 
ATOM      3  C   UNL     1     -21.025   4.757  23.191  1.00  0.00    +0.119 A 
ATOM      4  C   UNL     1     -21.708   3.566  23.427  1.00  0.00    +0.065 A 
ATOM      5  C   UNL     1     -21.025   2.537  24.090  1.00  0.00    +0.126 A 
ATOM      6  N   UNL     1     -19.739   2.615  24.501  1.00  0.00    -0.252 NA
ATOM      7  C   UNL     1     -23.046   3.513  23.000  1.00  0.00    +0.145 A 
ATOM      8  N   UNL     1     -23.640   4.578  22.438  1.00  0.00    -0.177 NA
ATOM      9  C   UNL     1     -22.900   5.674  22.259  1.00  0.00    +0.319 A 
ATOM     10  N   UNL     1     -21.615   5.802  22.596  1.00  0.00    -0.192 NA
ATOM     11  F   UNL     1     -19.003   5.971  23.367  1.00  0.00    -0.202 F 
ENDROOT
BRANCH   1  12
ATOM     12  C   UNL     1     -17.693   3.833  24.704  1.00  0.00    +0.015 A 
ATOM     13  C   UNL     1     -16.539   3.824  22.357  1.00  0.00    -0.004 A 
ATOM     14  C   UNL     1     -15.311   3.762  21.663  1.00  0.00    +0.127 A 
ATOM     15  C   UNL     1     -16.554   3.810  23.805  1.00  0.00    -0.002 A 
ATOM     16  C   UNL     1     -14.096   3.709  22.315  1.00  0.00    +0.040 A 
ATOM     17  C   UNL     1     -15.268   3.779  24.440  1.00  0.00    -0.014 A 
ATOM     18  C   UNL     1     -14.078   3.725  23.698  1.00  0.00    +0.012 A 
ATOM     19  C   UNL     1     -15.134   3.805  25.834  1.00  0.00    +0.055 A 
ATOM     20  C   UNL     1     -17.507   3.877  26.107  1.00  0.00    +0.057 A 
ATOM     21  C   UNL     1     -16.242   3.865  26.654  1.00  0.00    +0.116 A 
ATOM     22  F   UNL     1     -15.303   3.762  20.321  1.00  0.00    -0.207 F 
BRANCH  13  23
ATOM     23  C   UNL     1     -17.758   3.917  21.462  1.00  0.00    +0.036 C 
ATOM     24  C   UNL     1     -18.324   2.549  21.102  1.00  0.00    +0.009 C 
ENDBRANCH  13  23
BRANCH  21  25
ATOM     25  O   UNL     1     -16.041   3.904  28.001  1.00  0.00    -0.508 OA
ATOM     26  H   UNL     1     -16.767   4.399  28.415  1.00  0.00    +0.293 HD
ENDBRANCH  21  25
ENDBRANCH   1  12
BRANCH   7  27
ATOM     27  N   UNL     1     -23.792   2.326  23.163  1.00  0.00    -0.353 N 
ATOM     28  C   UNL     1     -23.157   1.163  22.525  1.00  0.00    +0.118 C 
ATOM     29  C   UNL     1     -25.240   2.463  22.860  1.00  0.00    +0.153 C 
ATOM     30  C   UNL     1     -23.255   1.213  20.999  1.00  0.00    +0.024 C 
ATOM     31  C   UNL     1     -25.681   1.775  21.536  1.00  0.00    +0.079 C 
ATOM     32  C   UNL     1     -24.572   1.801  20.479  1.00  0.00    +0.038 C 
ATOM     33  C   UNL     1     -26.957   2.431  21.002  1.00  0.00    +0.044 C 
BRANCH  31  34
ATOM     34  O   UNL     1     -25.993   0.396  21.808  1.00  0.00    -0.388 OA
ATOM     35  H   UNL     1     -26.947   0.273  21.667  1.00  0.00    +0.211 HD
ENDBRANCH  31  34
ENDBRANCH   7  27
BRANCH   9  36
ATOM     36  O   UNL     1     -23.582   6.735  21.711  1.00  0.00    -0.461 OA
BRANCH  36  37
ATOM     37  C   UNL     1     -24.973   6.522  21.461  1.00  0.00    +0.255 C 
BRANCH  37  38
ATOM     38  C   UNL     1     -25.630   7.769  20.814  1.00  0.00    +0.058 C 
ATOM     39  C   UNL     1     -26.128   7.516  19.385  1.00  0.00    +0.027 C 
ATOM     40  N   UNL     1     -26.864   8.168  21.543  1.00  0.00    -0.291 NA
ATOM     41  C   UNL     1     -24.724   8.996  20.935  1.00  0.00    +0.065 C 
ATOM     42  C   UNL     1     -27.514   6.919  19.579  1.00  0.00    +0.018 C 
ATOM     43  C   UNL     1     -27.952   7.353  20.976  1.00  0.00    +0.085 C 
ATOM     44  C   UNL     1     -27.053   9.607  21.267  1.00  0.00    +0.123 C 
ATOM     45  C   UNL     1     -25.673  10.180  20.951  1.00  0.00    +0.182 C 
ATOM     46  F   UNL     1     -25.697  10.741  19.710  1.00  0.00    -0.246 F 
ENDBRANCH  37  38
ENDBRANCH  36  37
ENDBRANCH   9  36
TORSDOF 8
ENDMDL
MODEL 2
REMARK VINA RESULT:   -11.015      1.289      1.739
REMARK INTER + INTRA:         -16.795
REMARK INTER:                 -14.878
REMARK INTRA:                  -1.917
REMARK UNBOUND:                -1.272
REMARK SMILES CCc1c(F)ccc2cc(O)cc(-c3ncc4c(N5CCC[C@@](C)(O)C5)nc(OC[C@@]56CCCN5C[C@H](F)C6)nc4c3F)c12
REMARK SMILES IDX 14 1 42 2 41 3 17 4 16 5 15 6 18 7 27 8 28 9 40 10 43 11
REMARK SMILES IDX 13 12 3 13 4 14 44 15 6 16 8 17 7 18 9 19 12 20 10 21 5 22
REMARK SMILES IDX 2 23 1 24 11 25 19 27 20 28 26 29 21 30 23 31 22 32 24 33
REMARK SMILES IDX 25 34 29 36 30 37 31 38 32 39 35 40 39 41 33 42 34 43 36 44
REMARK SMILES IDX 37 45 38 46
REMARK H PARENT 11 26 25 35
ROOT
ATOM      1  C   UNL     1     -19.209   3.465  24.016  1.00  0.00    +0.109 A 
ATOM      2  C   UNL     1     -20.009   4.490  23.518  1.00  0.00    +0.176 A 
ATOM      3  C   UNL     1     -21.301   4.226  23.077  1.00  0.00    +0.119 A 
ATOM      4  C   UNL     1     -21.750   2.907  23.109  1.00  0.00    +0.065 A 
ATOM      5  C   UNL     1     -20.878   1.929  23.607  1.00  0.00    +0.126 A 
ATOM      6  N   UNL     1     -19.622   2.175  24.042  1.00  0.00    -0.252 NA
ATOM      7  C   UNL     1     -23.062   2.679  22.661  1.00  0.00    +0.145 A 
ATOM      8  N   UNL     1     -23.851   3.692  22.269  1.00  0.00    -0.177 NA
ATOM      9  C   UNL     1     -23.328   4.920  22.279  1.00  0.00    +0.319 A 
ATOM     10  N   UNL     1     -22.083   5.226  22.650  1.00  0.00    -0.192 NA
ATOM     11  F   UNL     1     -19.534   5.747  23.474  1.00  0.00    -0.202 F 
ENDROOT
BRANCH   1  12
ATOM     12  C   UNL     1     -17.832   3.699  24.467  1.00  0.00    +0.015 A 
ATOM     13  C   UNL     1     -16.624   3.666  22.147  1.00  0.00    -0.004 A 
ATOM     14  C   UNL     1     -15.380   3.699  21.481  1.00  0.00    +0.127 A 
ATOM     15  C   UNL     1     -16.674   3.747  23.592  1.00  0.00    -0.002 A 
ATOM     16  C   UNL     1     -14.184   3.828  22.157  1.00  0.00    +0.040 A 
ATOM     17  C   UNL     1     -15.410   3.905  24.250  1.00  0.00    -0.014 A 
ATOM     18  C   UNL     1     -14.203   3.937  23.536  1.00  0.00    +0.012 A 
ATOM     19  C   UNL     1     -15.316   4.038  25.641  1.00  0.00    +0.055 A 
ATOM     20  C   UNL     1     -17.688   3.858  25.866  1.00  0.00    +0.057 A 
ATOM     21  C   UNL     1     -16.444   4.026  26.436  1.00  0.00    +0.116 A 
ATOM     22  F   UNL     1     -15.337   3.611  20.142  1.00  0.00    -0.207 F 
BRANCH  13  23
ATOM     23  C   UNL     1     -17.823   3.561  21.226  1.00  0.00    +0.036 C 
ATOM     24  C   UNL     1     -18.234   2.117  20.965  1.00  0.00    +0.009 C 
ENDBRANCH  13  23
BRANCH  21  25
ATOM     25  O   UNL     1     -16.283   4.177  27.780  1.00  0.00    -0.508 OA
ATOM     26  H   UNL     1     -15.983   3.334  28.158  1.00  0.00    +0.293 HD
ENDBRANCH  21  25
ENDBRANCH   1  12
BRANCH   7  27
ATOM     27  N   UNL     1     -23.575   1.365  22.620  1.00  0.00    -0.353 N 
ATOM     28  C   UNL     1     -22.834   0.494  21.695  1.00  0.00    +0.118 C 
ATOM     29  C   UNL     1     -25.051   1.284  22.472  1.00  0.00    +0.153 C 
ATOM     30  C   UNL     1     -23.118   0.829  20.230  1.00  0.00    +0.024 C 
ATOM     31  C   UNL     1     -25.524   0.804  21.069  1.00  0.00    +0.079 C 
ATOM     32  C   UNL     1     -24.567   1.249  19.958  1.00  0.00    +0.038 C 
ATOM     33  C   UNL     1     -26.946   1.301  20.795  1.00  0.00    +0.044 C 
BRANCH  31  34
ATOM     34  O   UNL     1     -25.566  -0.635  21.058  1.00  0.00    -0.388 OA
ATOM     35  H   UNL     1     -24.678  -0.957  20.822  1.00  0.00    +0.211 HD
ENDBRANCH  31  34
ENDBRANCH   7  27
BRANCH   9  36
ATOM     36  O   UNL     1     -24.202   5.912  21.901  1.00  0.00    -0.461 OA
BRANCH  36  37
ATOM     37  C   UNL     1     -25.533   5.798  22.407  1.00  0.00    +0.255 C 
BRANCH  37  38
ATOM     38  C   UNL     1     -26.585   6.136  21.319  1.00  0.00    +0.058 C 
ATOM     39  C   UNL     1     -28.000   6.324  21.882  1.00  0.00    +0.027 C 
ATOM     40  N   UNL     1     -26.295   7.445  20.676  1.00  0.00    -0.291 NA
ATOM     41  C   UNL     1     -26.519   5.139  20.159  1.00  0.00    +0.065 C 
ATOM     42  C   UNL     1     -28.029   7.780  22.324  1.00  0.00    +0.018 C 
ATOM     43  C   UNL     1     -26.918   8.467  21.534  1.00  0.00    +0.085 C 
ATOM     44  C   UNL     1     -26.923   7.392  19.339  1.00  0.00    +0.123 C 
ATOM     45  C   UNL     1     -27.005   5.917  18.950  1.00  0.00    +0.182 C 
ATOM     46  F   UNL     1     -28.305   5.591  18.711  1.00  0.00    -0.246 F 
ENDBRANCH  37  38
ENDBRANCH  36  37
ENDBRANCH   9  36
TORSDOF 8
ENDMDL
