MODEL 1
REMARK VINA RESULT:   -12.931      0.000      0.000
REMARK INTER + INTRA:         -18.538
REMARK INTER:                 -17.089
REMARK INTRA:                  -1.449
REMARK UNBOUND:                -1.449
REMARK SMILES C#Cc1c(F)ccc2cc(O)cc(-c3ncc4c(N5C[C@H]6CC[C@@H](C5)N6)nc(OC[C@@]56CCCN5C[C@H](F)C6)nc4c3F)c12
REMARK SMILES IDX 14 1 42 2 41 3 17 4 16 5 15 6 18 7 27 8 28 9 40 10 43 11
REMARK SMILES IDX 13 12 2 13 3 14 4 15 44 16 6 17 8 18 7 19 9 20 12 21 10 22
REMARK SMILES IDX 1 23 5 24 11 25 19 27 20 28 25 29 21 30 24 31 22 32 26 33
REMARK SMILES IDX 23 34 29 36 30 37 31 38 32 39 35 40 39 41 33 42 34 43 36 44
REMARK SMILES IDX 37 45 38 46
REMARK H PARENT 11 26 26 35
ROOT
ATOM      1  C   UNL     1     -19.147   3.532  24.032  1.00  0.00    +0.109 A 
ATOM      2  C   UNL     1     -19.865   4.627  23.554  1.00  0.00    +0.176 A 
ATOM      3  C   UNL     1     -21.185   4.481  23.143  1.00  0.00    +0.119 A 
ATOM      4  C   UNL     1     -21.771   3.219  23.252  1.00  0.00    +0.065 A 
ATOM      5  C   UNL     1     -20.980   2.171  23.745  1.00  0.00    +0.126 A 
ATOM      6  N   UNL     1     -19.699   2.302  24.155  1.00  0.00    -0.252 NA
ATOM      7  C   UNL     1     -23.108   3.104  22.829  1.00  0.00    +0.145 A 
ATOM      8  N   UNL     1     -23.757   4.150  22.300  1.00  0.00    -0.177 NA
ATOM      9  C   UNL     1     -23.106   5.313  22.226  1.00  0.00    +0.319 A 
ATOM     10  N   UNL     1     -21.857   5.531  22.650  1.00  0.00    -0.192 NA
ATOM     11  F   UNL     1     -19.275   5.834  23.487  1.00  0.00    -0.202 F 
ENDROOT
BRANCH   1  12
ATOM     12  C   UNL     1     -17.761   3.652  24.503  1.00  0.00    +0.016 A 
ATOM     13  C   UNL     1     -17.767   3.068  21.443  1.00  0.00    -0.067 C 
ATOM     14  C   UNL     1     -16.591   3.371  22.213  1.00  0.00    +0.068 A 
ATOM     15  C   UNL     1     -15.384   3.387  21.497  1.00  0.00    +0.139 A 
ATOM     16  C   UNL     1     -16.609   3.610  23.631  1.00  0.00    +0.010 A 
ATOM     17  C   UNL     1     -14.173   3.621  22.121  1.00  0.00    +0.041 A 
ATOM     18  C   UNL     1     -15.336   3.823  24.247  1.00  0.00    -0.013 A 
ATOM     19  C   UNL     1     -14.151   3.831  23.492  1.00  0.00    +0.012 A 
ATOM     20  C   UNL     1     -15.223   4.025  25.629  1.00  0.00    +0.055 A 
ATOM     21  C   UNL     1     -17.600   3.838  25.894  1.00  0.00    +0.057 A 
ATOM     22  C   UNL     1     -16.343   4.020  26.440  1.00  0.00    +0.116 A 
ATOM     23  C   UNL     1     -18.712   2.801  20.751  1.00  0.00    +0.010 C 
ATOM     24  F   UNL     1     -15.376   3.168  20.171  1.00  0.00    -0.206 F 
BRANCH  22  25
ATOM     25  O   UNL     1     -16.163   4.207  27.777  1.00  0.00    -0.508 OA
ATOM     26  H   UNL     1     -16.577   3.470  28.256  1.00  0.00    +0.293 HD
ENDBRANCH  22  25
ENDBRANCH   1  12
BRANCH   7  27
ATOM     27  N   UNL     1     -23.791   1.885  22.949  1.00  0.00    -0.353 N 
ATOM     28  C   UNL     1     -25.264   2.005  23.089  1.00  0.00    +0.137 C 
ATOM     29  C   UNL     1     -23.324   0.780  22.072  1.00  0.00    +0.137 C 
ATOM     30  C   UNL     1     -26.051   1.554  21.827  1.00  0.00    +0.073 C 
ATOM     31  C   UNL     1     -24.302   0.412  20.921  1.00  0.00    +0.073 C 
ATOM     32  C   UNL     1     -25.676   2.361  20.582  1.00  0.00    +0.022 C 
ATOM     33  N   UNL     1     -25.665   0.174  21.457  1.00  0.00    -0.308 NA
ATOM     34  C   UNL     1     -24.551   1.553  19.938  1.00  0.00    +0.022 C 
ATOM     35  H   UNL     1     -26.263  -0.142  20.693  1.00  0.00    +0.123 HD
ENDBRANCH   7  27
BRANCH   9  36
ATOM     36  O   UNL     1     -23.845   6.350  21.706  1.00  0.00    -0.461 OA
BRANCH  36  37
ATOM     37  C   UNL     1     -25.223   6.018  21.509  1.00  0.00    +0.255 C 
BRANCH  37  38
ATOM     38  C   UNL     1     -25.971   7.184  20.814  1.00  0.00    +0.058 C 
ATOM     39  C   UNL     1     -26.368   6.768  19.376  1.00  0.00    +0.027 C 
ATOM     40  N   UNL     1     -27.254   7.514  21.510  1.00  0.00    -0.291 NA
ATOM     41  C   UNL     1     -25.149   8.480  20.850  1.00  0.00    +0.065 C 
ATOM     42  C   UNL     1     -27.871   6.964  19.288  1.00  0.00    +0.018 C 
ATOM     43  C   UNL     1     -28.322   6.875  20.730  1.00  0.00    +0.085 C 
ATOM     44  C   UNL     1     -27.380   8.990  21.529  1.00  0.00    +0.123 C 
ATOM     45  C   UNL     1     -26.190   9.571  20.779  1.00  0.00    +0.182 C 
ATOM     46  F   UNL     1     -26.528   9.782  19.477  1.00  0.00    -0.246 F 
ENDBRANCH  37  38
ENDBRANCH  36  37
ENDBRANCH   9  36
TORSDOF 6
ENDMDL
MODEL 2
REMARK VINA RESULT:   -11.264      1.722      2.666
REMARK INTER + INTRA:         -16.335
REMARK INTER:                 -14.991
REMARK INTRA:                  -1.345
REMARK UNBOUND:                -1.449
REMARK SMILES C#Cc1c(F)ccc2cc(O)cc(-c3ncc4c(N5C[C@H]6CC[C@@H](C5)N6)nc(OC[C@@]56CCCN5C[C@H](F)C6)nc4c3F)c12
REMARK SMILES IDX 14 1 42 2 41 3 17 4 16 5 15 6 18 7 27 8 28 9 40 10 43 11
REMARK SMILES IDX 13 12 2 13 3 14 4 15 44 16 6 17 8 18 7 19 9 20 12 21 10 22
REMARK SMILES IDX 1 23 5 24 11 25 19 27 20 28 25 29 21 30 24 31 22 32 26 33
REMARK SMILES IDX 23 34 29 36 30 37 31 38 32 39 35 40 39 41 33 42 34 43 36 44
REMARK SMILES IDX 37 45 38 46
REMARK H PARENT 11 26 26 35
ROOT
ATOM      1  C   UNL     1     -19.121   3.658  22.547  1.00  0.00    +0.109 A 
ATOM      2  C   UNL     1     -19.897   4.805  22.393  1.00  0.00    +0.176 A 
ATOM      3  C   UNL     1     -21.285   4.728  22.413  1.00  0.00    +0.119 A 
ATOM      4  C   UNL     1     -21.870   3.478  22.621  1.00  0.00    +0.065 A 
ATOM      5  C   UNL     1     -21.018   2.374  22.769  1.00  0.00    +0.126 A 
ATOM      6  N   UNL     1     -19.668   2.437  22.759  1.00  0.00    -0.252 NA
ATOM      7  C   UNL     1     -23.276   3.432  22.638  1.00  0.00    +0.145 A 
ATOM      8  N   UNL     1     -24.005   4.534  22.410  1.00  0.00    -0.177 NA
ATOM      9  C   UNL     1     -23.352   5.680  22.208  1.00  0.00    +0.319 A 
ATOM     10  N   UNL     1     -22.023   5.831  22.227  1.00  0.00    -0.192 NA
ATOM     11  F   UNL     1     -19.298   5.997  22.220  1.00  0.00    -0.202 F 
ENDROOT
BRANCH   1  12
ATOM     12  C   UNL     1     -17.653   3.703  22.560  1.00  0.00    +0.016 A 
ATOM     13  C   UNL     1     -18.722   3.926  25.478  1.00  0.00    -0.067 C 
ATOM     14  C   UNL     1     -17.333   3.808  25.125  1.00  0.00    +0.068 A 
ATOM     15  C   UNL     1     -16.432   3.803  26.201  1.00  0.00    +0.139 A 
ATOM     16  C   UNL     1     -16.861   3.733  23.769  1.00  0.00    +0.010 A 
ATOM     17  C   UNL     1     -15.065   3.739  26.003  1.00  0.00    +0.041 A 
ATOM     18  C   UNL     1     -15.441   3.694  23.601  1.00  0.00    -0.013 A 
ATOM     19  C   UNL     1     -14.575   3.692  24.706  1.00  0.00    +0.012 A 
ATOM     20  C   UNL     1     -14.862   3.662  22.325  1.00  0.00    +0.055 A 
ATOM     21  C   UNL     1     -17.027   3.692  21.294  1.00  0.00    +0.057 A 
ATOM     22  C   UNL     1     -15.649   3.673  21.188  1.00  0.00    +0.116 A 
ATOM     23  C   UNL     1     -19.865   4.037  25.832  1.00  0.00    +0.010 C 
ATOM     24  F   UNL     1     -16.881   3.868  27.466  1.00  0.00    -0.206 F 
BRANCH  22  25
ATOM     25  O   UNL     1     -15.023   3.658  19.979  1.00  0.00    -0.508 OA
ATOM     26  H   UNL     1     -15.693   3.583  19.279  1.00  0.00    +0.293 HD
ENDBRANCH  22  25
ENDBRANCH   1  12
BRANCH   7  27
ATOM     27  N   UNL     1     -23.947   2.227  22.889  1.00  0.00    -0.353 N 
ATOM     28  C   UNL     1     -25.428   2.332  22.925  1.00  0.00    +0.137 C 
ATOM     29  C   UNL     1     -23.412   1.021  22.207  1.00  0.00    +0.137 C 
ATOM     30  C   UNL     1     -26.130   1.690  21.696  1.00  0.00    +0.073 C 
ATOM     31  C   UNL     1     -24.312   0.472  21.065  1.00  0.00    +0.073 C 
ATOM     32  C   UNL     1     -25.691   2.322  20.373  1.00  0.00    +0.022 C 
ATOM     33  N   UNL     1     -25.702   0.281  21.549  1.00  0.00    -0.308 NA
ATOM     34  C   UNL     1     -24.517   1.457  19.917  1.00  0.00    +0.022 C 
ATOM     35  H   UNL     1     -26.247  -0.153  20.804  1.00  0.00    +0.123 HD
ENDBRANCH   7  27
BRANCH   9  36
ATOM     36  O   UNL     1     -24.163   6.774  22.017  1.00  0.00    -0.461 OA
BRANCH  36  37
ATOM     37  C   UNL     1     -24.352   7.103  20.636  1.00  0.00    +0.255 C 
BRANCH  37  38
ATOM     38  C   UNL     1     -25.859   7.272  20.316  1.00  0.00    +0.058 C 
ATOM     39  C   UNL     1     -26.270   6.282  19.200  1.00  0.00    +0.027 C 
ATOM     40  N   UNL     1     -26.718   6.935  21.495  1.00  0.00    -0.291 NA
ATOM     41  C   UNL     1     -26.202   8.728  19.973  1.00  0.00    +0.065 C 
ATOM     42  C   UNL     1     -27.421   5.469  19.769  1.00  0.00    +0.018 C 
ATOM     43  C   UNL     1     -27.216   5.573  21.264  1.00  0.00    +0.085 C 
ATOM     44  C   UNL     1     -27.813   7.932  21.544  1.00  0.00    +0.123 C 
ATOM     45  C   UNL     1     -27.659   8.854  20.344  1.00  0.00    +0.182 C 
ATOM     46  F   UNL     1     -28.423   8.397  19.314  1.00  0.00    -0.246 F 
ENDBRANCH  37  38
ENDBRANCH  36  37
ENDBRANCH   9  36
TORSDOF 6
ENDMDL
MODEL 3
REMARK VINA RESULT:   -10.237      1.788      2.773
REMARK INTER + INTRA:         -14.977
REMARK INTER:                 -13.962
REMARK INTRA:                  -1.015
REMARK UNBOUND:                -1.449
REMARK SMILES C#Cc1c(F)ccc2cc(O)cc(-c3ncc4c(N5C[C@H]6CC[C@@H](C5)N6)nc(OC[C@@]56CCCN5C[C@H](F)C6)nc4c3F)c12
REMARK SMILES IDX 14 1 42 2 41 3 17 4 16 5 15 6 18 7 27 8 28 9 40 10 43 11
REMARK SMILES IDX 13 12 2 13 3 14 4 15 44 16 6 17 8 18 7 19 9 20 12 21 10 22
REMARK SMILES IDX 1 23 5 24 11 25 19 27 20 28 25 29 21 30 24 31 22 32 26 33
REMARK SMILES IDX 23 34 29 36 30 37 31 38 32 39 35 40 39 41 33 42 34 43 36 44
REMARK SMILES IDX 37 45 38 46
REMARK H PARENT 11 26 26 35
ROOT
ATOM      1  C   UNL     1     -19.063   3.672  22.540  1.00  0.00    +0.109 A 
ATOM      2  C   UNL     1     -19.853   4.812  22.397  1.00  0.00    +0.176 A 
ATOM      3  C   UNL     1     -21.240   4.718  22.421  1.00  0.00    +0.119 A 
ATOM      4  C   UNL     1     -21.810   3.460  22.622  1.00  0.00    +0.065 A 
ATOM      5  C   UNL     1     -20.945   2.364  22.760  1.00  0.00    +0.126 A 
ATOM      6  N   UNL     1     -19.595   2.444  22.746  1.00  0.00    -0.252 NA
ATOM      7  C   UNL     1     -23.215   3.397  22.644  1.00  0.00    +0.145 A 
ATOM      8  N   UNL     1     -23.957   4.492  22.426  1.00  0.00    -0.177 NA
ATOM      9  C   UNL     1     -23.318   5.648  22.230  1.00  0.00    +0.319 A 
ATOM     10  N   UNL     1     -21.992   5.814  22.246  1.00  0.00    -0.192 NA
ATOM     11  F   UNL     1     -19.268   6.011  22.230  1.00  0.00    -0.202 F 
ENDROOT
BRANCH   1  12
ATOM     12  C   UNL     1     -17.596   3.734  22.549  1.00  0.00    +0.016 A 
ATOM     13  C   UNL     1     -18.656   3.910  25.473  1.00  0.00    -0.067 C 
ATOM     14  C   UNL     1     -17.267   3.812  25.113  1.00  0.00    +0.068 A 
ATOM     15  C   UNL     1     -16.362   3.805  26.186  1.00  0.00    +0.139 A 
ATOM     16  C   UNL     1     -16.799   3.759  23.755  1.00  0.00    +0.010 A 
ATOM     17  C   UNL     1     -14.996   3.760  25.982  1.00  0.00    +0.041 A 
ATOM     18  C   UNL     1     -15.380   3.739  23.581  1.00  0.00    -0.013 A 
ATOM     19  C   UNL     1     -14.510   3.733  24.683  1.00  0.00    +0.012 A 
ATOM     20  C   UNL     1     -14.806   3.729  22.303  1.00  0.00    +0.055 A 
ATOM     21  C   UNL     1     -16.975   3.745  21.280  1.00  0.00    +0.057 A 
ATOM     22  C   UNL     1     -15.597   3.744  21.169  1.00  0.00    +0.116 A 
ATOM     23  C   UNL     1     -19.799   4.003  25.832  1.00  0.00    +0.010 C 
ATOM     24  F   UNL     1     -16.807   3.849  27.453  1.00  0.00    -0.206 F 
BRANCH  22  25
ATOM     25  O   UNL     1     -14.975   3.750  19.958  1.00  0.00    -0.508 OA
ATOM     26  H   UNL     1     -15.572   3.363  19.296  1.00  0.00    +0.293 HD
ENDBRANCH  22  25
ENDBRANCH   1  12
BRANCH   7  27
ATOM     27  N   UNL     1     -23.871   2.183  22.889  1.00  0.00    -0.353 N 
ATOM     28  C   UNL     1     -25.344   2.289  23.046  1.00  0.00    +0.137 C 
ATOM     29  C   UNL     1     -23.398   1.010  22.109  1.00  0.00    +0.137 C 
ATOM     30  C   UNL     1     -26.144   1.708  21.847  1.00  0.00    +0.073 C 
ATOM     31  C   UNL     1     -24.388   0.519  21.017  1.00  0.00    +0.073 C 
ATOM     32  C   UNL     1     -25.807   2.403  20.525  1.00  0.00    +0.022 C 
ATOM     33  N   UNL     1     -25.737   0.307  21.599  1.00  0.00    -0.308 NA
ATOM     34  C   UNL     1     -24.677   1.559  19.937  1.00  0.00    +0.022 C 
ATOM     35  H   UNL     1     -26.342  -0.089  20.879  1.00  0.00    +0.123 HD
ENDBRANCH   7  27
BRANCH   9  36
ATOM     36  O   UNL     1     -24.143   6.733  22.050  1.00  0.00    -0.461 OA
BRANCH  36  37
ATOM     37  C   UNL     1     -24.607   6.872  20.702  1.00  0.00    +0.255 C 
BRANCH  37  38
ATOM     38  C   UNL     1     -25.046   8.333  20.425  1.00  0.00    +0.058 C 
ATOM     39  C   UNL     1     -26.359   8.336  19.604  1.00  0.00    +0.027 C 
ATOM     40  N   UNL     1     -25.356   9.070  21.690  1.00  0.00    -0.291 NA
ATOM     41  C   UNL     1     -23.926   9.139  19.754  1.00  0.00    +0.065 C 
ATOM     42  C   UNL     1     -27.349   9.161  20.409  1.00  0.00    +0.018 C 
ATOM     43  C   UNL     1     -26.819   9.062  21.822  1.00  0.00    +0.085 C 
ATOM     44  C   UNL     1     -24.813  10.441  21.548  1.00  0.00    +0.123 C 
ATOM     45  C   UNL     1     -24.218  10.565  20.153  1.00  0.00    +0.182 C 
ATOM     46  F   UNL     1     -25.146  11.086  19.305  1.00  0.00    -0.246 F 
ENDBRANCH  37  38
ENDBRANCH  36  37
ENDBRANCH   9  36
TORSDOF 6
ENDMDL
