REMARK SMILES CCc1c(F)ccc2cc(O)cc(-c3ncc4c(N5CCC[C@]6(CCO6)C5)nc(OC[C@@]56CCCN5C[C@H](F)C6)nc4c3F)c12
REMARK SMILES IDX 14 1 43 2 42 3 17 4 16 5 15 6 18 7 28 8 29 9 41 10 44 11
REMARK SMILES IDX 13 12 3 13 4 14 45 15 6 16 8 17 7 18 9 19 12 20 10 21 5 22
REMARK SMILES IDX 2 23 1 24 11 25 19 27 20 28 27 29 21 30 23 31 22 32 24 33
REMARK SMILES IDX 26 34 25 35 30 36 31 37 32 38 33 39 36 40 40 41 34 42 35 43
REMARK SMILES IDX 37 44 38 45 39 46
REMARK H PARENT 11 26
ROOT
ATOM      1  C   UNL     1      -2.739  -0.851   1.236  1.00  0.00    +0.109 A 
ATOM      2  C   UNL     1      -1.451  -1.316   0.968  1.00  0.00    +0.176 A 
ATOM      3  C   UNL     1      -0.445  -0.433   0.588  1.00  0.00    +0.119 A 
ATOM      4  C   UNL     1      -0.761   0.922   0.510  1.00  0.00    +0.065 A 
ATOM      5  C   UNL     1      -2.075   1.311   0.804  1.00  0.00    +0.126 A 
ATOM      6  N   UNL     1      -3.058   0.463   1.178  1.00  0.00    -0.252 NA
ATOM      7  C   UNL     1       0.274   1.788   0.120  1.00  0.00    +0.145 A 
ATOM      8  N   UNL     1       1.497   1.327  -0.184  1.00  0.00    -0.177 NA
ATOM      9  C   UNL     1       1.702   0.013  -0.071  1.00  0.00    +0.319 A 
ATOM     10  N   UNL     1       0.785  -0.887   0.305  1.00  0.00    -0.192 NA
ATOM     11  F   UNL     1      -1.180  -2.629   1.071  1.00  0.00    -0.202 F 
ENDROOT
BRANCH   1  12
ATOM     12  C   UNL     1      -3.807  -1.748   1.692  1.00  0.00    +0.015 A 
ATOM     13  C   UNL     1      -4.782  -2.443  -0.629  1.00  0.00    -0.004 A 
ATOM     14  C   UNL     1      -5.705  -3.269  -1.306  1.00  0.00    +0.127 A 
ATOM     15  C   UNL     1      -4.692  -2.490   0.815  1.00  0.00    -0.002 A 
ATOM     16  C   UNL     1      -6.545  -4.138  -0.640  1.00  0.00    +0.040 A 
ATOM     17  C   UNL     1      -5.603  -3.385   1.467  1.00  0.00    -0.014 A 
ATOM     18  C   UNL     1      -6.495  -4.189   0.742  1.00  0.00    +0.012 A 
ATOM     19  C   UNL     1      -5.651  -3.498   2.862  1.00  0.00    +0.055 A 
ATOM     20  C   UNL     1      -3.906  -1.880   3.099  1.00  0.00    +0.057 A 
ATOM     21  C   UNL     1      -4.820  -2.744   3.666  1.00  0.00    +0.116 A 
ATOM     22  F   UNL     1      -5.798  -3.212  -2.644  1.00  0.00    -0.207 F 
BRANCH  13  23
ATOM     23  C   UNL     1      -4.005  -1.501  -1.525  1.00  0.00    +0.036 C 
ATOM     24  C   UNL     1      -4.725  -0.173  -1.716  1.00  0.00    +0.009 C 
ENDBRANCH  13  23
BRANCH  21  25
ATOM     25  O   UNL     1      -4.928  -2.891   5.016  1.00  0.00    -0.508 OA
ATOM     26  H   UNL     1      -4.308  -2.282   5.451  1.00  0.00    +0.293 HD
ENDBRANCH  21  25
ENDBRANCH   1  12
BRANCH   7  27
ATOM     27  N   UNL     1       0.035   3.184   0.053  1.00  0.00    -0.353 N 
ATOM     28  C   UNL     1       0.249   3.798   1.386  1.00  0.00    +0.118 C 
ATOM     29  C   UNL     1       0.833   3.836  -1.007  1.00  0.00    +0.153 C 
ATOM     30  C   UNL     1       0.505   5.310   1.281  1.00  0.00    +0.024 C 
ATOM     31  C   UNL     1       0.328   5.282  -1.212  1.00  0.00    +0.088 C 
ATOM     32  C   UNL     1      -0.208   5.919   0.078  1.00  0.00    +0.039 C 
ATOM     33  C   UNL     1      -0.562   5.522  -2.449  1.00  0.00    +0.066 C 
ATOM     34  O   UNL     1       1.381   6.112  -1.790  1.00  0.00    -0.373 OA
ATOM     35  C   UNL     1       0.672   6.185  -3.048  1.00  0.00    +0.164 C 
ENDBRANCH   7  27
BRANCH   9  36
ATOM     36  O   UNL     1       2.974  -0.398  -0.392  1.00  0.00    -0.461 OA
BRANCH  36  37
ATOM     37  C   UNL     1       3.178  -1.803  -0.230  1.00  0.00    +0.255 C 
BRANCH  37  38
ATOM     38  C   UNL     1       4.646  -2.193  -0.571  1.00  0.00    +0.058 C 
ATOM     39  C   UNL     1       5.088  -1.609  -1.921  1.00  0.00    +0.027 C 
ATOM     40  N   UNL     1       5.575  -1.614   0.444  1.00  0.00    -0.291 NA
ATOM     41  C   UNL     1       4.831  -3.709  -0.463  1.00  0.00    +0.065 C 
ATOM     42  C   UNL     1       5.936  -0.406  -1.540  1.00  0.00    +0.018 C 
ATOM     43  C   UNL     1       6.620  -0.871  -0.269  1.00  0.00    +0.085 C 
ATOM     44  C   UNL     1       6.114  -2.711   1.265  1.00  0.00    +0.123 C 
ATOM     45  C   UNL     1       5.212  -3.904   0.991  1.00  0.00    +0.182 C 
ATOM     46  F   UNL     1       5.880  -5.070   1.146  1.00  0.00    -0.246 F 
ENDBRANCH  37  38
ENDBRANCH  36  37
ENDBRANCH   9  36
TORSDOF 7
