MODEL 1
REMARK VINA RESULT:    -9.798      0.000      0.000
REMARK INTER + INTRA:         -15.428
REMARK INTER:                 -13.520
REMARK INTRA:                  -1.907
REMARK UNBOUND:                -1.907
REMARK SMILES CCc1c(F)ccc2cc(O)cc(-c3ncc4c(N5CCC[C@]6(CCO6)C5)nc(OC[C@@]56CCCN5C[C@H](F)C6)nc4c3F)c12
REMARK SMILES IDX 14 1 43 2 42 3 17 4 16 5 15 6 18 7 28 8 29 9 41 10 44 11
REMARK SMILES IDX 13 12 3 13 4 14 45 15 6 16 8 17 7 18 9 19 12 20 10 21 5 22
REMARK SMILES IDX 2 23 1 24 11 25 19 27 20 28 27 29 21 30 23 31 22 32 24 33
REMARK SMILES IDX 26 34 25 35 30 36 31 37 32 38 33 39 36 40 40 41 34 42 35 43
REMARK SMILES IDX 37 44 38 45 39 46
REMARK H PARENT 11 26
ROOT
ATOM      1  C   UNL     1     -19.222   3.958  23.804  1.00  0.00    +0.109 A 
ATOM      2  C   UNL     1     -19.767   5.193  23.451  1.00  0.00    +0.176 A 
ATOM      3  C   UNL     1     -21.081   5.284  23.002  1.00  0.00    +0.119 A 
ATOM      4  C   UNL     1     -21.833   4.112  22.941  1.00  0.00    +0.065 A 
ATOM      5  C   UNL     1     -21.216   2.913  23.322  1.00  0.00    +0.126 A 
ATOM      6  N   UNL     1     -19.943   2.814  23.763  1.00  0.00    -0.252 NA
ATOM      7  C   UNL     1     -23.154   4.235  22.480  1.00  0.00    +0.145 A 
ATOM      8  N   UNL     1     -23.655   5.419  22.096  1.00  0.00    -0.177 NA
ATOM      9  C   UNL     1     -22.858   6.485  22.199  1.00  0.00    +0.319 A 
ATOM     10  N   UNL     1     -21.593   6.469  22.638  1.00  0.00    -0.192 NA
ATOM     11  F   UNL     1     -19.016   6.305  23.540  1.00  0.00    -0.202 F 
ENDROOT
BRANCH   1  12
ATOM     12  C   UNL     1     -17.859   3.836  24.334  1.00  0.00    +0.015 A 
ATOM     13  C   UNL     1     -16.552   3.677  22.078  1.00  0.00    -0.004 A 
ATOM     14  C   UNL     1     -15.280   3.624  21.469  1.00  0.00    +0.127 A 
ATOM     15  C   UNL     1     -16.662   3.753  23.519  1.00  0.00    -0.002 A 
ATOM     16  C   UNL     1     -14.110   3.639  22.200  1.00  0.00    +0.040 A 
ATOM     17  C   UNL     1     -15.422   3.737  24.240  1.00  0.00    -0.014 A 
ATOM     18  C   UNL     1     -14.185   3.690  23.581  1.00  0.00    +0.012 A 
ATOM     19  C   UNL     1     -15.385   3.763  25.640  1.00  0.00    +0.055 A 
ATOM     20  C   UNL     1     -17.773   3.839  25.748  1.00  0.00    +0.057 A 
ATOM     21  C   UNL     1     -16.549   3.801  26.382  1.00  0.00    +0.116 A 
ATOM     22  F   UNL     1     -15.181   3.538  20.133  1.00  0.00    -0.207 F 
BRANCH  13  23
ATOM     23  C   UNL     1     -17.716   3.569  21.115  1.00  0.00    +0.036 C 
ATOM     24  C   UNL     1     -18.212   2.136  20.980  1.00  0.00    +0.009 C 
ENDBRANCH  13  23
BRANCH  21  25
ATOM     25  O   UNL     1     -16.443   3.809  27.740  1.00  0.00    -0.508 OA
ATOM     26  H   UNL     1     -15.844   3.095  28.015  1.00  0.00    +0.293 HD
ENDBRANCH  21  25
ENDBRANCH   1  12
BRANCH   7  27
ATOM     27  N   UNL     1     -23.989   3.091  22.425  1.00  0.00    -0.353 N 
ATOM     28  C   UNL     1     -25.332   3.418  22.961  1.00  0.00    +0.118 C 
ATOM     29  C   UNL     1     -24.046   2.507  21.067  1.00  0.00    +0.153 C 
ATOM     30  C   UNL     1     -26.397   2.422  22.475  1.00  0.00    +0.024 C 
ATOM     31  C   UNL     1     -24.735   1.125  21.133  1.00  0.00    +0.088 C 
ATOM     32  C   UNL     1     -25.803   1.038  22.232  1.00  0.00    +0.039 C 
ATOM     33  C   UNL     1     -23.803  -0.102  21.063  1.00  0.00    +0.066 C 
ATOM     34  O   UNL     1     -25.310   0.781  19.836  1.00  0.00    -0.373 OA
ATOM     35  C   UNL     1     -24.313  -0.247  19.635  1.00  0.00    +0.164 C 
ENDBRANCH   7  27
BRANCH   9  36
ATOM     36  O   UNL     1     -23.428   7.668  21.794  1.00  0.00    -0.461 OA
BRANCH  36  37
ATOM     37  C   UNL     1     -24.241   7.540  20.626  1.00  0.00    +0.255 C 
BRANCH  37  38
ATOM     38  C   UNL     1     -25.103   8.818  20.407  1.00  0.00    +0.058 C 
ATOM     39  C   UNL     1     -26.458   8.484  19.767  1.00  0.00    +0.027 C 
ATOM     40  N   UNL     1     -25.421   9.448  21.723  1.00  0.00    -0.291 NA
ATOM     41  C   UNL     1     -24.301   9.875  19.642  1.00  0.00    +0.065 C 
ATOM     42  C   UNL     1     -27.435   8.530  20.931  1.00  0.00    +0.018 C 
ATOM     43  C   UNL     1     -26.873   9.644  21.792  1.00  0.00    +0.085 C 
ATOM     44  C   UNL     1     -24.669  10.709  21.832  1.00  0.00    +0.123 C 
ATOM     45  C   UNL     1     -23.605  10.642  20.748  1.00  0.00    +0.182 C 
ATOM     46  F   UNL     1     -23.266  11.879  20.316  1.00  0.00    -0.246 F 
ENDBRANCH  37  38
ENDBRANCH  36  37
ENDBRANCH   9  36
TORSDOF 7
ENDMDL
MODEL 2
REMARK VINA RESULT:    -9.523      1.566      2.033
REMARK INTER + INTRA:         -15.049
REMARK INTER:                 -13.159
REMARK INTRA:                  -1.889
REMARK UNBOUND:                -1.907
REMARK SMILES CCc1c(F)ccc2cc(O)cc(-c3ncc4c(N5CCC[C@]6(CCO6)C5)nc(OC[C@@]56CCCN5C[C@H](F)C6)nc4c3F)c12
REMARK SMILES IDX 14 1 43 2 42 3 17 4 16 5 15 6 18 7 28 8 29 9 41 10 44 11
REMARK SMILES IDX 13 12 3 13 4 14 45 15 6 16 8 17 7 18 9 19 12 20 10 21 5 22
REMARK SMILES IDX 2 23 1 24 11 25 19 27 20 28 27 29 21 30 23 31 22 32 24 33
REMARK SMILES IDX 26 34 25 35 30 36 31 37 32 38 33 39 36 40 40 41 34 42 35 43
REMARK SMILES IDX 37 44 38 45 39 46
REMARK H PARENT 11 26
ROOT
ATOM      1  C   UNL     1     -19.207   3.931  23.792  1.00  0.00    +0.109 A 
ATOM      2  C   UNL     1     -19.776   5.148  23.414  1.00  0.00    +0.176 A 
ATOM      3  C   UNL     1     -21.089   5.202  22.957  1.00  0.00    +0.119 A 
ATOM      4  C   UNL     1     -21.815   4.013  22.914  1.00  0.00    +0.065 A 
ATOM      5  C   UNL     1     -21.176   2.834  23.320  1.00  0.00    +0.126 A 
ATOM      6  N   UNL     1     -19.903   2.771  23.770  1.00  0.00    -0.252 NA
ATOM      7  C   UNL     1     -23.136   4.100  22.444  1.00  0.00    +0.145 A 
ATOM      8  N   UNL     1     -23.661   5.265  22.036  1.00  0.00    -0.177 NA
ATOM      9  C   UNL     1     -22.887   6.349  22.122  1.00  0.00    +0.319 A 
ATOM     10  N   UNL     1     -21.624   6.369  22.568  1.00  0.00    -0.192 NA
ATOM     11  F   UNL     1     -19.049   6.276  23.485  1.00  0.00    -0.202 F 
ENDROOT
BRANCH   1  12
ATOM     12  C   UNL     1     -17.844   3.848  24.331  1.00  0.00    +0.015 A 
ATOM     13  C   UNL     1     -16.521   3.700  22.084  1.00  0.00    -0.004 A 
ATOM     14  C   UNL     1     -15.244   3.672  21.482  1.00  0.00    +0.127 A 
ATOM     15  C   UNL     1     -16.641   3.786  23.524  1.00  0.00    -0.002 A 
ATOM     16  C   UNL     1     -14.079   3.723  22.220  1.00  0.00    +0.040 A 
ATOM     17  C   UNL     1     -15.405   3.808  24.252  1.00  0.00    -0.014 A 
ATOM     18  C   UNL     1     -14.163   3.786  23.600  1.00  0.00    +0.012 A 
ATOM     19  C   UNL     1     -15.377   3.848  25.651  1.00  0.00    +0.055 A 
ATOM     20  C   UNL     1     -17.766   3.867  25.745  1.00  0.00    +0.057 A 
ATOM     21  C   UNL     1     -16.545   3.865  26.386  1.00  0.00    +0.116 A 
ATOM     22  F   UNL     1     -15.135   3.575  20.148  1.00  0.00    -0.207 F 
BRANCH  13  23
ATOM     23  C   UNL     1     -17.676   3.553  21.116  1.00  0.00    +0.036 C 
ATOM     24  C   UNL     1     -18.145   2.109  21.003  1.00  0.00    +0.009 C 
ENDBRANCH  13  23
BRANCH  21  25
ATOM     25  O   UNL     1     -16.447   3.889  27.745  1.00  0.00    -0.508 OA
ATOM     26  H   UNL     1     -16.287   2.985  28.067  1.00  0.00    +0.293 HD
ENDBRANCH  21  25
ENDBRANCH   1  12
BRANCH   7  27
ATOM     27  N   UNL     1     -23.947   2.937  22.407  1.00  0.00    -0.353 N 
ATOM     28  C   UNL     1     -25.255   3.211  23.049  1.00  0.00    +0.118 C 
ATOM     29  C   UNL     1     -24.088   2.400  21.037  1.00  0.00    +0.153 C 
ATOM     30  C   UNL     1     -26.329   2.206  22.604  1.00  0.00    +0.024 C 
ATOM     31  C   UNL     1     -24.738   0.999  21.100  1.00  0.00    +0.088 C 
ATOM     32  C   UNL     1     -25.722   0.847  22.269  1.00  0.00    +0.039 C 
ATOM     33  C   UNL     1     -23.786  -0.201  20.919  1.00  0.00    +0.066 C 
ATOM     34  O   UNL     1     -25.398   0.686  19.835  1.00  0.00    -0.373 OA
ATOM     35  C   UNL     1     -24.395  -0.308  19.526  1.00  0.00    +0.164 C 
ENDBRANCH   7  27
BRANCH   9  36
ATOM     36  O   UNL     1     -23.480   7.513  21.693  1.00  0.00    -0.461 OA
BRANCH  36  37
ATOM     37  C   UNL     1     -24.263   7.351  20.509  1.00  0.00    +0.255 C 
BRANCH  37  38
ATOM     38  C   UNL     1     -25.777   7.542  20.814  1.00  0.00    +0.058 C 
ATOM     39  C   UNL     1     -26.034   8.821  21.625  1.00  0.00    +0.027 C 
ATOM     40  N   UNL     1     -26.536   7.711  19.540  1.00  0.00    -0.291 NA
ATOM     41  C   UNL     1     -26.352   6.276  21.457  1.00  0.00    +0.065 C 
ATOM     42  C   UNL     1     -26.544   9.813  20.593  1.00  0.00    +0.018 C 
ATOM     43  C   UNL     1     -27.342   8.932  19.651  1.00  0.00    +0.085 C 
ATOM     44  C   UNL     1     -27.353   6.507  19.318  1.00  0.00    +0.123 C 
ATOM     45  C   UNL     1     -26.789   5.455  20.260  1.00  0.00    +0.182 C 
ATOM     46  F   UNL     1     -27.740   4.565  20.628  1.00  0.00    -0.246 F 
ENDBRANCH  37  38
ENDBRANCH  36  37
ENDBRANCH   9  36
TORSDOF 7
ENDMDL
MODEL 3
REMARK VINA RESULT:    -9.296      4.020     11.576
REMARK INTER + INTRA:         -14.736
REMARK INTER:                 -12.769
REMARK INTRA:                  -1.967
REMARK UNBOUND:                -1.907
REMARK SMILES CCc1c(F)ccc2cc(O)cc(-c3ncc4c(N5CCC[C@]6(CCO6)C5)nc(OC[C@@]56CCCN5C[C@H](F)C6)nc4c3F)c12
REMARK SMILES IDX 14 1 43 2 42 3 17 4 16 5 15 6 18 7 28 8 29 9 41 10 44 11
REMARK SMILES IDX 13 12 3 13 4 14 45 15 6 16 8 17 7 18 9 19 12 20 10 21 5 22
REMARK SMILES IDX 2 23 1 24 11 25 19 27 20 28 27 29 21 30 23 31 22 32 24 33
REMARK SMILES IDX 26 34 25 35 30 36 31 37 32 38 33 39 36 40 40 41 34 42 35 43
REMARK SMILES IDX 37 44 38 45 39 46
REMARK H PARENT 11 26
ROOT
ATOM      1  C   UNL     1     -28.010   7.135  19.250  1.00  0.00    +0.109 A 
ATOM      2  C   UNL     1     -27.053   6.314  19.847  1.00  0.00    +0.176 A 
ATOM      3  C   UNL     1     -25.907   6.862  20.415  1.00  0.00    +0.119 A 
ATOM      4  C   UNL     1     -25.763   8.248  20.388  1.00  0.00    +0.065 A 
ATOM      5  C   UNL     1     -26.774   9.004  19.779  1.00  0.00    +0.126 A 
ATOM      6  N   UNL     1     -27.892   8.483  19.229  1.00  0.00    -0.252 NA
ATOM      7  C   UNL     1     -24.594   8.770  20.966  1.00  0.00    +0.145 A 
ATOM      8  N   UNL     1     -23.654   7.971  21.494  1.00  0.00    -0.177 NA
ATOM      9  C   UNL     1     -23.889   6.657  21.477  1.00  0.00    +0.319 A 
ATOM     10  N   UNL     1     -24.975   6.068  20.964  1.00  0.00    -0.192 NA
ATOM     11  F   UNL     1     -27.235   4.982  19.868  1.00  0.00    -0.202 F 
ENDROOT
BRANCH   1  12
ATOM     12  C   UNL     1     -29.255   6.594  18.692  1.00  0.00    +0.015 A 
ATOM     13  C   UNL     1     -30.606   6.298  20.907  1.00  0.00    -0.004 A 
ATOM     14  C   UNL     1     -31.852   5.956  21.476  1.00  0.00    +0.127 A 
ATOM     15  C   UNL     1     -30.433   6.263  19.471  1.00  0.00    -0.002 A 
ATOM     16  C   UNL     1     -32.936   5.580  20.709  1.00  0.00    +0.040 A 
ATOM     17  C   UNL     1     -31.576   5.840  18.715  1.00  0.00    -0.014 A 
ATOM     18  C   UNL     1     -32.793   5.518  19.334  1.00  0.00    +0.012 A 
ATOM     19  C   UNL     1     -31.533   5.721  17.321  1.00  0.00    +0.055 A 
ATOM     20  C   UNL     1     -29.252   6.439  17.284  1.00  0.00    +0.057 A 
ATOM     21  C   UNL     1     -30.379   6.006  16.618  1.00  0.00    +0.116 A 
ATOM     22  F   UNL     1     -32.006   5.973  22.810  1.00  0.00    -0.207 F 
BRANCH  13  23
ATOM     23  C   UNL     1     -29.517   6.605  21.914  1.00  0.00    +0.036 C 
ATOM     24  C   UNL     1     -29.575   8.049  22.393  1.00  0.00    +0.009 C 
ENDBRANCH  13  23
BRANCH  21  25
ATOM     25  O   UNL     1     -30.400   5.856  15.264  1.00  0.00    -0.508 OA
ATOM     26  H   UNL     1     -30.153   4.943  15.043  1.00  0.00    +0.293 HD
ENDBRANCH  21  25
ENDBRANCH   1  12
BRANCH   7  27
ATOM     27  N   UNL     1     -24.397  10.174  21.007  1.00  0.00    -0.353 N 
ATOM     28  C   UNL     1     -23.698  10.550  22.260  1.00  0.00    +0.118 C 
ATOM     29  C   UNL     1     -23.707  10.675  19.799  1.00  0.00    +0.153 C 
ATOM     30  C   UNL     1     -23.018  11.923  22.141  1.00  0.00    +0.024 C 
ATOM     31  C   UNL     1     -23.771  12.219  19.776  1.00  0.00    +0.088 C 
ATOM     32  C   UNL     1     -23.767  12.841  21.180  1.00  0.00    +0.039 C 
ATOM     33  C   UNL     1     -24.806  12.842  18.816  1.00  0.00    +0.066 C 
ATOM     34  O   UNL     1     -22.678  12.763  18.975  1.00  0.00    -0.373 OA
ATOM     35  C   UNL     1     -23.603  13.176  17.943  1.00  0.00    +0.164 C 
ENDBRANCH   7  27
BRANCH   9  36
ATOM     36  O   UNL     1     -22.893   5.891  22.035  1.00  0.00    -0.461 OA
BRANCH  36  37
ATOM     37  C   UNL     1     -23.365   4.671  22.610  1.00  0.00    +0.255 C 
BRANCH  37  38
ATOM     38  C   UNL     1     -22.180   3.716  22.935  1.00  0.00    +0.058 C 
ATOM     39  C   UNL     1     -20.879   4.493  23.186  1.00  0.00    +0.027 C 
ATOM     40  N   UNL     1     -22.457   2.972  24.200  1.00  0.00    -0.291 NA
ATOM     41  C   UNL     1     -22.057   2.636  21.856  1.00  0.00    +0.065 C 
ATOM     42  C   UNL     1     -20.743   4.501  24.700  1.00  0.00    +0.018 C 
ATOM     43  C   UNL     1     -21.306   3.148  25.091  1.00  0.00    +0.085 C 
ATOM     44  C   UNL     1     -22.711   1.561  23.867  1.00  0.00    +0.123 C 
ATOM     45  C   UNL     1     -22.966   1.536  22.368  1.00  0.00    +0.182 C 
ATOM     46  F   UNL     1     -22.609   0.348  21.829  1.00  0.00    -0.246 F 
ENDBRANCH  37  38
ENDBRANCH  36  37
ENDBRANCH   9  36
TORSDOF 7
ENDMDL
MODEL 4
REMARK VINA RESULT:    -9.002      4.777      8.067
REMARK INTER + INTRA:         -14.330
REMARK INTER:                 -12.289
REMARK INTRA:                  -2.041
REMARK UNBOUND:                -1.907
REMARK SMILES CCc1c(F)ccc2cc(O)cc(-c3ncc4c(N5CCC[C@]6(CCO6)C5)nc(OC[C@@]56CCCN5C[C@H](F)C6)nc4c3F)c12
REMARK SMILES IDX 14 1 43 2 42 3 17 4 16 5 15 6 18 7 28 8 29 9 41 10 44 11
REMARK SMILES IDX 13 12 3 13 4 14 45 15 6 16 8 17 7 18 9 19 12 20 10 21 5 22
REMARK SMILES IDX 2 23 1 24 11 25 19 27 20 28 27 29 21 30 23 31 22 32 24 33
REMARK SMILES IDX 26 34 25 35 30 36 31 37 32 38 33 39 36 40 40 41 34 42 35 43
REMARK SMILES IDX 37 44 38 45 39 46
REMARK H PARENT 11 26
ROOT
ATOM      1  C   UNL     1     -26.180   3.479  21.992  1.00  0.00    +0.109 A 
ATOM      2  C   UNL     1     -26.606   4.461  21.097  1.00  0.00    +0.176 A 
ATOM      3  C   UNL     1     -27.459   5.478  21.517  1.00  0.00    +0.119 A 
ATOM      4  C   UNL     1     -27.848   5.493  22.855  1.00  0.00    +0.065 A 
ATOM      5  C   UNL     1     -27.369   4.476  23.693  1.00  0.00    +0.126 A 
ATOM      6  N   UNL     1     -26.537   3.487  23.297  1.00  0.00    -0.252 NA
ATOM      7  C   UNL     1     -28.712   6.528  23.247  1.00  0.00    +0.145 A 
ATOM      8  N   UNL     1     -29.157   7.441  22.370  1.00  0.00    -0.177 NA
ATOM      9  C   UNL     1     -28.721   7.345  21.112  1.00  0.00    +0.319 A 
ATOM     10  N   UNL     1     -27.888   6.405  20.648  1.00  0.00    -0.192 NA
ATOM     11  F   UNL     1     -26.196   4.423  19.817  1.00  0.00    -0.202 F 
ENDROOT
BRANCH   1  12
ATOM     12  C   UNL     1     -25.238   2.426  21.594  1.00  0.00    +0.015 A 
ATOM     13  C   UNL     1     -23.036   3.465  22.539  1.00  0.00    -0.004 A 
ATOM     14  C   UNL     1     -21.656   3.268  22.764  1.00  0.00    +0.127 A 
ATOM     15  C   UNL     1     -23.819   2.431  21.897  1.00  0.00    -0.002 A 
ATOM     16  C   UNL     1     -21.006   2.109  22.392  1.00  0.00    +0.040 A 
ATOM     17  C   UNL     1     -23.097   1.258  21.501  1.00  0.00    -0.014 A 
ATOM     18  C   UNL     1     -21.726   1.112  21.757  1.00  0.00    +0.012 A 
ATOM     19  C   UNL     1     -23.724   0.199  20.832  1.00  0.00    +0.055 A 
ATOM     20  C   UNL     1     -25.825   1.341  20.899  1.00  0.00    +0.057 A 
ATOM     21  C   UNL     1     -25.069   0.248  20.525  1.00  0.00    +0.116 A 
ATOM     22  F   UNL     1     -20.928   4.234  23.346  1.00  0.00    -0.207 F 
BRANCH  13  23
ATOM     23  C   UNL     1     -23.551   4.830  22.945  1.00  0.00    +0.036 C 
ATOM     24  C   UNL     1     -23.188   5.902  21.926  1.00  0.00    +0.009 C 
ENDBRANCH  13  23
BRANCH  21  25
ATOM     25  O   UNL     1     -25.614  -0.809  19.861  1.00  0.00    -0.508 OA
ATOM     26  H   UNL     1     -25.280  -0.815  18.949  1.00  0.00    +0.293 HD
ENDBRANCH  21  25
ENDBRANCH   1  12
BRANCH   7  27
ATOM     27  N   UNL     1     -29.121   6.627  24.601  1.00  0.00    -0.353 N 
ATOM     28  C   UNL     1     -28.365   7.708  25.280  1.00  0.00    +0.118 C 
ATOM     29  C   UNL     1     -30.584   6.791  24.731  1.00  0.00    +0.153 C 
ATOM     30  C   UNL     1     -29.087   8.199  26.545  1.00  0.00    +0.024 C 
ATOM     31  C   UNL     1     -30.990   6.614  26.211  1.00  0.00    +0.088 C 
ATOM     32  C   UNL     1     -29.908   7.088  27.191  1.00  0.00    +0.039 C 
ATOM     33  C   UNL     1     -31.626   5.259  26.584  1.00  0.00    +0.066 C 
ATOM     34  O   UNL     1     -32.253   7.297  26.478  1.00  0.00    -0.373 OA
ATOM     35  C   UNL     1     -32.938   6.032  26.627  1.00  0.00    +0.164 C 
ENDBRANCH   7  27
BRANCH   9  36
ATOM     36  O   UNL     1     -29.208   8.309  20.262  1.00  0.00    -0.461 OA
BRANCH  36  37
ATOM     37  C   UNL     1     -29.231   7.903  18.892  1.00  0.00    +0.255 C 
BRANCH  37  38
ATOM     38  C   UNL     1     -30.662   7.460  18.469  1.00  0.00    +0.058 C 
ATOM     39  C   UNL     1     -31.701   8.555  18.754  1.00  0.00    +0.027 C 
ATOM     40  N   UNL     1     -30.709   7.232  16.995  1.00  0.00    -0.291 NA
ATOM     41  C   UNL     1     -31.004   6.105  19.095  1.00  0.00    +0.065 C 
ATOM     42  C   UNL     1     -31.947   9.189  17.395  1.00  0.00    +0.018 C 
ATOM     43  C   UNL     1     -31.828   8.009  16.451  1.00  0.00    +0.085 C 
ATOM     44  C   UNL     1     -30.845   5.786  16.749  1.00  0.00    +0.123 C 
ATOM     45  C   UNL     1     -30.492   5.116  18.067  1.00  0.00    +0.182 C 
ATOM     46  F   UNL     1     -31.131   3.931  18.202  1.00  0.00    -0.246 F 
ENDBRANCH  37  38
ENDBRANCH  36  37
ENDBRANCH   9  36
TORSDOF 7
ENDMDL
MODEL 5
REMARK VINA RESULT:    -8.950      4.671      7.919
REMARK INTER + INTRA:         -14.259
REMARK INTER:                 -11.980
REMARK INTRA:                  -2.279
REMARK UNBOUND:                -1.907
REMARK SMILES CCc1c(F)ccc2cc(O)cc(-c3ncc4c(N5CCC[C@]6(CCO6)C5)nc(OC[C@@]56CCCN5C[C@H](F)C6)nc4c3F)c12
REMARK SMILES IDX 14 1 43 2 42 3 17 4 16 5 15 6 18 7 28 8 29 9 41 10 44 11
REMARK SMILES IDX 13 12 3 13 4 14 45 15 6 16 8 17 7 18 9 19 12 20 10 21 5 22
REMARK SMILES IDX 2 23 1 24 11 25 19 27 20 28 27 29 21 30 23 31 22 32 24 33
REMARK SMILES IDX 26 34 25 35 30 36 31 37 32 38 33 39 36 40 40 41 34 42 35 43
REMARK SMILES IDX 37 44 38 45 39 46
REMARK H PARENT 11 26
ROOT
ATOM      1  C   UNL     1     -26.120   3.429  22.035  1.00  0.00    +0.109 A 
ATOM      2  C   UNL     1     -26.576   4.371  21.112  1.00  0.00    +0.176 A 
ATOM      3  C   UNL     1     -27.453   5.379  21.505  1.00  0.00    +0.119 A 
ATOM      4  C   UNL     1     -27.834   5.426  22.844  1.00  0.00    +0.065 A 
ATOM      5  C   UNL     1     -27.325   4.450  23.711  1.00  0.00    +0.126 A 
ATOM      6  N   UNL     1     -26.471   3.470  23.341  1.00  0.00    -0.252 NA
ATOM      7  C   UNL     1     -28.722   6.452  23.209  1.00  0.00    +0.145 A 
ATOM      8  N   UNL     1     -29.195   7.324  22.306  1.00  0.00    -0.177 NA
ATOM      9  C   UNL     1     -28.764   7.200  21.049  1.00  0.00    +0.319 A 
ATOM     10  N   UNL     1     -27.910   6.267  20.610  1.00  0.00    -0.192 NA
ATOM     11  F   UNL     1     -26.172   4.303  19.832  1.00  0.00    -0.202 F 
ENDROOT
BRANCH   1  12
ATOM     12  C   UNL     1     -25.153   2.389  21.665  1.00  0.00    +0.015 A 
ATOM     13  C   UNL     1     -22.980   3.493  22.602  1.00  0.00    -0.004 A 
ATOM     14  C   UNL     1     -21.598   3.329  22.840  1.00  0.00    +0.127 A 
ATOM     15  C   UNL     1     -23.738   2.430  21.976  1.00  0.00    -0.002 A 
ATOM     16  C   UNL     1     -20.921   2.177  22.496  1.00  0.00    +0.040 A 
ATOM     17  C   UNL     1     -22.988   1.264  21.609  1.00  0.00    -0.014 A 
ATOM     18  C   UNL     1     -21.616   1.153  21.877  1.00  0.00    +0.012 A 
ATOM     19  C   UNL     1     -23.589   0.179  20.958  1.00  0.00    +0.055 A 
ATOM     20  C   UNL     1     -25.713   1.277  20.988  1.00  0.00    +0.057 A 
ATOM     21  C   UNL     1     -24.932   0.194  20.642  1.00  0.00    +0.116 A 
ATOM     22  F   UNL     1     -20.895   4.322  23.406  1.00  0.00    -0.207 F 
BRANCH  13  23
ATOM     23  C   UNL     1     -23.526   4.855  22.977  1.00  0.00    +0.036 C 
ATOM     24  C   UNL     1     -23.211   5.905  21.920  1.00  0.00    +0.009 C 
ENDBRANCH  13  23
BRANCH  21  25
ATOM     25  O   UNL     1     -25.450  -0.888  19.996  1.00  0.00    -0.508 OA
ATOM     26  H   UNL     1     -25.370  -0.752  19.037  1.00  0.00    +0.293 HD
ENDBRANCH  21  25
ENDBRANCH   1  12
BRANCH   7  27
ATOM     27  N   UNL     1     -29.127   6.583  24.562  1.00  0.00    -0.353 N 
ATOM     28  C   UNL     1     -28.365   7.677  25.213  1.00  0.00    +0.118 C 
ATOM     29  C   UNL     1     -30.589   6.755  24.693  1.00  0.00    +0.153 C 
ATOM     30  C   UNL     1     -29.081   8.200  26.468  1.00  0.00    +0.024 C 
ATOM     31  C   UNL     1     -30.991   6.613  26.178  1.00  0.00    +0.088 C 
ATOM     32  C   UNL     1     -29.903   7.107  27.143  1.00  0.00    +0.039 C 
ATOM     33  C   UNL     1     -31.629   5.269  26.584  1.00  0.00    +0.066 C 
ATOM     34  O   UNL     1     -32.250   7.306  26.433  1.00  0.00    -0.373 OA
ATOM     35  C   UNL     1     -32.939   6.048  26.613  1.00  0.00    +0.164 C 
ENDBRANCH   7  27
BRANCH   9  36
ATOM     36  O   UNL     1     -29.280   8.123  20.172  1.00  0.00    -0.461 OA
BRANCH  36  37
ATOM     37  C   UNL     1     -28.989   7.836  18.803  1.00  0.00    +0.255 C 
BRANCH  37  38
ATOM     38  C   UNL     1     -30.203   7.149  18.110  1.00  0.00    +0.058 C 
ATOM     39  C   UNL     1     -29.883   5.702  17.711  1.00  0.00    +0.027 C 
ATOM     40  N   UNL     1     -31.349   7.062  19.063  1.00  0.00    -0.291 NA
ATOM     41  C   UNL     1     -30.711   8.013  16.952  1.00  0.00    +0.065 C 
ATOM     42  C   UNL     1     -30.556   4.866  18.787  1.00  0.00    +0.018 C 
ATOM     43  C   UNL     1     -31.806   5.668  19.097  1.00  0.00    +0.085 C 
ATOM     44  C   UNL     1     -32.398   7.995  18.620  1.00  0.00    +0.123 C 
ATOM     45  C   UNL     1     -31.722   8.922  17.622  1.00  0.00    +0.182 C 
ATOM     46  F   UNL     1     -32.605   9.389  16.710  1.00  0.00    -0.246 F 
ENDBRANCH  37  38
ENDBRANCH  36  37
ENDBRANCH   9  36
TORSDOF 7
ENDMDL
MODEL 6
REMARK VINA RESULT:    -8.890      4.176      7.107
REMARK INTER + INTRA:         -14.175
REMARK INTER:                 -12.025
REMARK INTRA:                  -2.150
REMARK UNBOUND:                -1.907
REMARK SMILES CCc1c(F)ccc2cc(O)cc(-c3ncc4c(N5CCC[C@]6(CCO6)C5)nc(OC[C@@]56CCCN5C[C@H](F)C6)nc4c3F)c12
REMARK SMILES IDX 14 1 43 2 42 3 17 4 16 5 15 6 18 7 28 8 29 9 41 10 44 11
REMARK SMILES IDX 13 12 3 13 4 14 45 15 6 16 8 17 7 18 9 19 12 20 10 21 5 22
REMARK SMILES IDX 2 23 1 24 11 25 19 27 20 28 27 29 21 30 23 31 22 32 24 33
REMARK SMILES IDX 26 34 25 35 30 36 31 37 32 38 33 39 36 40 40 41 34 42 35 43
REMARK SMILES IDX 37 44 38 45 39 46
REMARK H PARENT 11 26
ROOT
ATOM      1  C   UNL     1     -26.027   3.531  22.060  1.00  0.00    +0.109 A 
ATOM      2  C   UNL     1     -26.103   4.726  21.343  1.00  0.00    +0.176 A 
ATOM      3  C   UNL     1     -26.852   5.794  21.827  1.00  0.00    +0.119 A 
ATOM      4  C   UNL     1     -27.498   5.637  23.052  1.00  0.00    +0.065 A 
ATOM      5  C   UNL     1     -27.365   4.410  23.715  1.00  0.00    +0.126 A 
ATOM      6  N   UNL     1     -26.637   3.368  23.257  1.00  0.00    -0.252 NA
ATOM      7  C   UNL     1     -28.250   6.731  23.511  1.00  0.00    +0.145 A 
ATOM      8  N   UNL     1     -28.358   7.859  22.793  1.00  0.00    -0.177 NA
ATOM      9  C   UNL     1     -27.696   7.914  21.635  1.00  0.00    +0.319 A 
ATOM     10  N   UNL     1     -26.945   6.932  21.122  1.00  0.00    -0.192 NA
ATOM     11  F   UNL     1     -25.452   4.846  20.173  1.00  0.00    -0.202 F 
ENDROOT
BRANCH   1  12
ATOM     12  C   UNL     1     -25.201   2.407  21.605  1.00  0.00    +0.015 A 
ATOM     13  C   UNL     1     -22.899   3.165  22.578  1.00  0.00    -0.004 A 
ATOM     14  C   UNL     1     -21.547   2.815  22.781  1.00  0.00    +0.127 A 
ATOM     15  C   UNL     1     -23.789   2.250  21.894  1.00  0.00    -0.002 A 
ATOM     16  C   UNL     1     -21.022   1.614  22.349  1.00  0.00    +0.040 A 
ATOM     17  C   UNL     1     -23.194   1.028  21.437  1.00  0.00    -0.014 A 
ATOM     18  C   UNL     1     -21.845   0.729  21.675  1.00  0.00    +0.012 A 
ATOM     19  C   UNL     1     -23.931   0.073  20.725  1.00  0.00    +0.055 A 
ATOM     20  C   UNL     1     -25.901   1.423  20.864  1.00  0.00    +0.057 A 
ATOM     21  C   UNL     1     -25.265   0.277  20.433  1.00  0.00    +0.116 A 
ATOM     22  F   UNL     1     -20.720   3.672  23.401  1.00  0.00    -0.207 F 
BRANCH  13  23
ATOM     23  C   UNL     1     -23.268   4.555  23.052  1.00  0.00    +0.036 C 
ATOM     24  C   UNL     1     -22.565   5.638  22.243  1.00  0.00    +0.009 C 
ENDBRANCH  13  23
BRANCH  21  25
ATOM     25  O   UNL     1     -25.920  -0.685  19.725  1.00  0.00    -0.508 OA
ATOM     26  H   UNL     1     -26.729  -0.934  20.202  1.00  0.00    +0.293 HD
ENDBRANCH  21  25
ENDBRANCH   1  12
BRANCH   7  27
ATOM     27  N   UNL     1     -28.905   6.656  24.766  1.00  0.00    -0.353 N 
ATOM     28  C   UNL     1     -28.405   7.727  25.663  1.00  0.00    +0.118 C 
ATOM     29  C   UNL     1     -30.377   6.673  24.629  1.00  0.00    +0.153 C 
ATOM     30  C   UNL     1     -29.392   8.021  26.803  1.00  0.00    +0.024 C 
ATOM     31  C   UNL     1     -31.022   6.312  25.986  1.00  0.00    +0.088 C 
ATOM     32  C   UNL     1     -30.192   6.781  27.189  1.00  0.00    +0.039 C 
ATOM     33  C   UNL     1     -31.566   4.874  26.119  1.00  0.00    +0.066 C 
ATOM     34  O   UNL     1     -32.378   6.847  26.063  1.00  0.00    -0.373 OA
ATOM     35  C   UNL     1     -32.939   5.518  25.975  1.00  0.00    +0.164 C 
ENDBRANCH   7  27
BRANCH   9  36
ATOM     36  O   UNL     1     -27.842   9.096  20.947  1.00  0.00    -0.461 OA
BRANCH  36  37
ATOM     37  C   UNL     1     -26.638   9.546  20.324  1.00  0.00    +0.255 C 
BRANCH  37  38
ATOM     38  C   UNL     1     -26.106  10.837  21.014  1.00  0.00    +0.058 C 
ATOM     39  C   UNL     1     -27.243  11.641  21.663  1.00  0.00    +0.027 C 
ATOM     40  N   UNL     1     -25.180  10.475  22.127  1.00  0.00    -0.291 NA
ATOM     41  C   UNL     1     -25.256  11.650  20.035  1.00  0.00    +0.065 C 
ATOM     42  C   UNL     1     -27.131  11.305  23.142  1.00  0.00    +0.018 C 
ATOM     43  C   UNL     1     -25.634  11.166  23.338  1.00  0.00    +0.085 C 
ATOM     44  C   UNL     1     -23.810  10.847  21.736  1.00  0.00    +0.123 C 
ATOM     45  C   UNL     1     -23.866  11.080  20.234  1.00  0.00    +0.182 C 
ATOM     46  F   UNL     1     -22.932  11.976  19.841  1.00  0.00    -0.246 F 
ENDBRANCH  37  38
ENDBRANCH  36  37
ENDBRANCH   9  36
TORSDOF 7
ENDMDL
MODEL 7
REMARK VINA RESULT:    -8.844      4.262      7.305
REMARK INTER + INTRA:         -14.112
REMARK INTER:                 -12.270
REMARK INTRA:                  -1.842
REMARK UNBOUND:                -1.907
REMARK SMILES CCc1c(F)ccc2cc(O)cc(-c3ncc4c(N5CCC[C@]6(CCO6)C5)nc(OC[C@@]56CCCN5C[C@H](F)C6)nc4c3F)c12
REMARK SMILES IDX 14 1 43 2 42 3 17 4 16 5 15 6 18 7 28 8 29 9 41 10 44 11
REMARK SMILES IDX 13 12 3 13 4 14 45 15 6 16 8 17 7 18 9 19 12 20 10 21 5 22
REMARK SMILES IDX 2 23 1 24 11 25 19 27 20 28 27 29 21 30 23 31 22 32 24 33
REMARK SMILES IDX 26 34 25 35 30 36 31 37 32 38 33 39 36 40 40 41 34 42 35 43
REMARK SMILES IDX 37 44 38 45 39 46
REMARK H PARENT 11 26
ROOT
ATOM      1  C   UNL     1     -26.101   3.459  22.115  1.00  0.00    +0.109 A 
ATOM      2  C   UNL     1     -26.315   4.619  21.369  1.00  0.00    +0.176 A 
ATOM      3  C   UNL     1     -27.078   5.662  21.886  1.00  0.00    +0.119 A 
ATOM      4  C   UNL     1     -27.597   5.516  23.171  1.00  0.00    +0.065 A 
ATOM      5  C   UNL     1     -27.330   4.325  23.859  1.00  0.00    +0.126 A 
ATOM      6  N   UNL     1     -26.586   3.309  23.369  1.00  0.00    -0.252 NA
ATOM      7  C   UNL     1     -28.367   6.583  23.663  1.00  0.00    +0.145 A 
ATOM      8  N   UNL     1     -28.608   7.675  22.921  1.00  0.00    -0.177 NA
ATOM      9  C   UNL     1     -28.061   7.722  21.705  1.00  0.00    +0.319 A 
ATOM     10  N   UNL     1     -27.303   6.764  21.156  1.00  0.00    -0.192 NA
ATOM     11  F   UNL     1     -25.783   4.730  20.139  1.00  0.00    -0.202 F 
ENDROOT
BRANCH   1  12
ATOM     12  C   UNL     1     -25.256   2.366  21.621  1.00  0.00    +0.015 A 
ATOM     13  C   UNL     1     -22.943   3.204  22.499  1.00  0.00    -0.004 A 
ATOM     14  C   UNL     1     -21.572   2.902  22.644  1.00  0.00    +0.127 A 
ATOM     15  C   UNL     1     -23.828   2.260  21.850  1.00  0.00    -0.002 A 
ATOM     16  C   UNL     1     -21.023   1.722  22.185  1.00  0.00    +0.040 A 
ATOM     17  C   UNL     1     -23.210   1.061  21.364  1.00  0.00    -0.014 A 
ATOM     18  C   UNL     1     -21.842   0.810  21.543  1.00  0.00    +0.012 A 
ATOM     19  C   UNL     1     -23.942   0.082  20.680  1.00  0.00    +0.055 A 
ATOM     20  C   UNL     1     -25.950   1.359  20.907  1.00  0.00    +0.057 A 
ATOM     21  C   UNL     1     -25.293   0.238  20.445  1.00  0.00    +0.116 A 
ATOM     22  F   UNL     1     -20.751   3.787  23.232  1.00  0.00    -0.207 F 
BRANCH  13  23
ATOM     23  C   UNL     1     -23.341   4.580  22.994  1.00  0.00    +0.036 C 
ATOM     24  C   UNL     1     -22.622   5.687  22.236  1.00  0.00    +0.009 C 
ENDBRANCH  13  23
BRANCH  21  25
ATOM     25  O   UNL     1     -25.942  -0.745  19.761  1.00  0.00    -0.508 OA
ATOM     26  H   UNL     1     -26.364  -1.347  20.397  1.00  0.00    +0.293 HD
ENDBRANCH  21  25
ENDBRANCH   1  12
BRANCH   7  27
ATOM     27  N   UNL     1     -28.897   6.520  24.977  1.00  0.00    -0.353 N 
ATOM     28  C   UNL     1     -28.104   7.386  25.884  1.00  0.00    +0.118 C 
ATOM     29  C   UNL     1     -30.341   6.835  25.011  1.00  0.00    +0.153 C 
ATOM     30  C   UNL     1     -28.894   7.759  27.148  1.00  0.00    +0.024 C 
ATOM     31  C   UNL     1     -30.909   6.481  26.404  1.00  0.00    +0.088 C 
ATOM     32  C   UNL     1     -29.886   6.667  27.534  1.00  0.00    +0.039 C 
ATOM     33  C   UNL     1     -31.717   5.170  26.495  1.00  0.00    +0.066 C 
ATOM     34  O   UNL     1     -32.114   7.260  26.675  1.00  0.00    -0.373 OA
ATOM     35  C   UNL     1     -32.939   6.078  26.556  1.00  0.00    +0.164 C 
ENDBRANCH   7  27
BRANCH   9  36
ATOM     36  O   UNL     1     -28.341   8.865  20.995  1.00  0.00    -0.461 OA
BRANCH  36  37
ATOM     37  C   UNL     1     -27.288   9.262  20.113  1.00  0.00    +0.255 C 
BRANCH  37  38
ATOM     38  C   UNL     1     -26.249  10.153  20.855  1.00  0.00    +0.058 C 
ATOM     39  C   UNL     1     -24.932   9.402  21.100  1.00  0.00    +0.027 C 
ATOM     40  N   UNL     1     -25.893  11.331  20.011  1.00  0.00    -0.291 NA
ATOM     41  C   UNL     1     -26.868  10.744  22.125  1.00  0.00    +0.065 C 
ATOM     42  C   UNL     1     -24.000   9.937  20.024  1.00  0.00    +0.018 C 
ATOM     43  C   UNL     1     -24.431  11.386  19.902  1.00  0.00    +0.085 C 
ATOM     44  C   UNL     1     -26.466  12.539  20.627  1.00  0.00    +0.123 C 
ATOM     45  C   UNL     1     -27.490  12.036  21.632  1.00  0.00    +0.182 C 
ATOM     46  F   UNL     1     -27.637  12.904  22.659  1.00  0.00    -0.246 F 
ENDBRANCH  37  38
ENDBRANCH  36  37
ENDBRANCH   9  36
TORSDOF 7
ENDMDL
MODEL 8
REMARK VINA RESULT:    -8.621      4.485      8.039
REMARK INTER + INTRA:         -13.805
REMARK INTER:                 -11.271
REMARK INTRA:                  -2.534
REMARK UNBOUND:                -1.907
REMARK SMILES CCc1c(F)ccc2cc(O)cc(-c3ncc4c(N5CCC[C@]6(CCO6)C5)nc(OC[C@@]56CCCN5C[C@H](F)C6)nc4c3F)c12
REMARK SMILES IDX 14 1 43 2 42 3 17 4 16 5 15 6 18 7 28 8 29 9 41 10 44 11
REMARK SMILES IDX 13 12 3 13 4 14 45 15 6 16 8 17 7 18 9 19 12 20 10 21 5 22
REMARK SMILES IDX 2 23 1 24 11 25 19 27 20 28 27 29 21 30 23 31 22 32 24 33
REMARK SMILES IDX 26 34 25 35 30 36 31 37 32 38 33 39 36 40 40 41 34 42 35 43
REMARK SMILES IDX 37 44 38 45 39 46
REMARK H PARENT 11 26
ROOT
ATOM      1  C   UNL     1     -25.401   3.503  21.982  1.00  0.00    +0.109 A 
ATOM      2  C   UNL     1     -26.202   3.340  23.112  1.00  0.00    +0.176 A 
ATOM      3  C   UNL     1     -27.185   4.275  23.423  1.00  0.00    +0.119 A 
ATOM      4  C   UNL     1     -27.354   5.356  22.559  1.00  0.00    +0.065 A 
ATOM      5  C   UNL     1     -26.516   5.443  21.440  1.00  0.00    +0.126 A 
ATOM      6  N   UNL     1     -25.562   4.539  21.126  1.00  0.00    -0.252 NA
ATOM      7  C   UNL     1     -28.351   6.285  22.901  1.00  0.00    +0.145 A 
ATOM      8  N   UNL     1     -29.084   6.148  24.017  1.00  0.00    -0.177 NA
ATOM      9  C   UNL     1     -28.851   5.074  24.775  1.00  0.00    +0.319 A 
ATOM     10  N   UNL     1     -27.935   4.130  24.525  1.00  0.00    -0.192 NA
ATOM     11  F   UNL     1     -26.021   2.275  23.913  1.00  0.00    -0.202 F 
ENDROOT
BRANCH   1  12
ATOM     12  C   UNL     1     -24.394   2.507  21.597  1.00  0.00    +0.015 A 
ATOM     13  C   UNL     1     -22.286   3.615  22.668  1.00  0.00    -0.004 A 
ATOM     14  C   UNL     1     -20.909   3.473  22.949  1.00  0.00    +0.127 A 
ATOM     15  C   UNL     1     -22.992   2.567  21.962  1.00  0.00    -0.002 A 
ATOM     16  C   UNL     1     -20.190   2.358  22.572  1.00  0.00    +0.040 A 
ATOM     17  C   UNL     1     -22.199   1.440  21.564  1.00  0.00    -0.014 A 
ATOM     18  C   UNL     1     -20.835   1.349  21.878  1.00  0.00    +0.012 A 
ATOM     19  C   UNL     1     -22.747   0.375  20.839  1.00  0.00    +0.055 A 
ATOM     20  C   UNL     1     -24.899   1.418  20.844  1.00  0.00    +0.057 A 
ATOM     21  C   UNL     1     -24.078   0.373  20.474  1.00  0.00    +0.116 A 
ATOM     22  F   UNL     1     -20.253   4.453  23.590  1.00  0.00    -0.207 F 
BRANCH  13  23
ATOM     23  C   UNL     1     -22.881   4.942  23.090  1.00  0.00    +0.036 C 
ATOM     24  C   UNL     1     -22.524   6.061  22.121  1.00  0.00    +0.009 C 
ENDBRANCH  13  23
BRANCH  21  25
ATOM     25  O   UNL     1     -24.544  -0.687  19.755  1.00  0.00    -0.508 OA
ATOM     26  H   UNL     1     -25.396  -0.446  19.353  1.00  0.00    +0.293 HD
ENDBRANCH  21  25
ENDBRANCH   1  12
BRANCH   7  27
ATOM     27  N   UNL     1     -28.603   7.390  22.050  1.00  0.00    -0.353 N 
ATOM     28  C   UNL     1     -30.015   7.368  21.597  1.00  0.00    +0.118 C 
ATOM     29  C   UNL     1     -28.230   8.675  22.680  1.00  0.00    +0.153 C 
ATOM     30  C   UNL     1     -30.481   8.751  21.117  1.00  0.00    +0.024 C 
ATOM     31  C   UNL     1     -28.265   9.796  21.616  1.00  0.00    +0.088 C 
ATOM     32  C   UNL     1     -29.327   9.561  20.533  1.00  0.00    +0.039 C 
ATOM     33  C   UNL     1     -26.899  10.256  21.069  1.00  0.00    +0.066 C 
ATOM     34  O   UNL     1     -28.465  11.095  22.252  1.00  0.00    -0.373 OA
ATOM     35  C   UNL     1     -27.109  11.487  21.942  1.00  0.00    +0.164 C 
ENDBRANCH   7  27
BRANCH   9  36
ATOM     36  O   UNL     1     -29.635   4.987  25.901  1.00  0.00    -0.461 OA
BRANCH  36  37
ATOM     37  C   UNL     1     -30.418   6.158  26.144  1.00  0.00    +0.255 C 
BRANCH  37  38
ATOM     38  C   UNL     1     -30.016   6.823  27.492  1.00  0.00    +0.058 C 
ATOM     39  C   UNL     1     -31.207   6.907  28.459  1.00  0.00    +0.027 C 
ATOM     40  N   UNL     1     -28.990   5.989  28.185  1.00  0.00    -0.291 NA
ATOM     41  C   UNL     1     -29.331   8.168  27.237  1.00  0.00    +0.065 C 
ATOM     42  C   UNL     1     -30.970   5.763  29.432  1.00  0.00    +0.018 C 
ATOM     43  C   UNL     1     -29.459   5.736  29.553  1.00  0.00    +0.085 C 
ATOM     44  C   UNL     1     -27.703   6.702  28.147  1.00  0.00    +0.123 C 
ATOM     45  C   UNL     1     -27.871   7.787  27.094  1.00  0.00    +0.182 C 
ATOM     46  F   UNL     1     -27.082   8.853  27.358  1.00  0.00    -0.246 F 
ENDBRANCH  37  38
ENDBRANCH  36  37
ENDBRANCH   9  36
TORSDOF 7
ENDMDL
MODEL 9
REMARK VINA RESULT:    -8.478      4.734      9.743
REMARK INTER + INTRA:         -13.607
REMARK INTER:                 -11.815
REMARK INTRA:                  -1.792
REMARK UNBOUND:                -1.907
REMARK SMILES CCc1c(F)ccc2cc(O)cc(-c3ncc4c(N5CCC[C@]6(CCO6)C5)nc(OC[C@@]56CCCN5C[C@H](F)C6)nc4c3F)c12
REMARK SMILES IDX 14 1 43 2 42 3 17 4 16 5 15 6 18 7 28 8 29 9 41 10 44 11
REMARK SMILES IDX 13 12 3 13 4 14 45 15 6 16 8 17 7 18 9 19 12 20 10 21 5 22
REMARK SMILES IDX 2 23 1 24 11 25 19 27 20 28 27 29 21 30 23 31 22 32 24 33
REMARK SMILES IDX 26 34 25 35 30 36 31 37 32 38 33 39 36 40 40 41 34 42 35 43
REMARK SMILES IDX 37 44 38 45 39 46
REMARK H PARENT 11 26
ROOT
ATOM      1  C   UNL     1     -25.991   9.467  20.557  1.00  0.00    +0.109 A 
ATOM      2  C   UNL     1     -25.422   8.203  20.715  1.00  0.00    +0.176 A 
ATOM      3  C   UNL     1     -26.113   7.061  20.320  1.00  0.00    +0.119 A 
ATOM      4  C   UNL     1     -27.371   7.227  19.745  1.00  0.00    +0.065 A 
ATOM      5  C   UNL     1     -27.870   8.530  19.612  1.00  0.00    +0.126 A 
ATOM      6  N   UNL     1     -27.206   9.645  19.988  1.00  0.00    -0.252 NA
ATOM      7  C   UNL     1     -28.046   6.056  19.360  1.00  0.00    +0.145 A 
ATOM      8  N   UNL     1     -27.512   4.841  19.560  1.00  0.00    -0.177 NA
ATOM      9  C   UNL     1     -26.298   4.789  20.112  1.00  0.00    +0.319 A 
ATOM     10  N   UNL     1     -25.573   5.846  20.498  1.00  0.00    -0.192 NA
ATOM     11  F   UNL     1     -24.198   8.085  21.258  1.00  0.00    -0.202 F 
ENDROOT
BRANCH   1  12
ATOM     12  C   UNL     1     -25.267  10.693  20.912  1.00  0.00    +0.015 A 
ATOM     13  C   UNL     1     -26.252  11.078  23.300  1.00  0.00    -0.004 A 
ATOM     14  C   UNL     1     -26.191  11.859  24.474  1.00  0.00    +0.127 A 
ATOM     15  C   UNL     1     -25.377  11.377  22.186  1.00  0.00    -0.002 A 
ATOM     16  C   UNL     1     -25.318  12.919  24.612  1.00  0.00    +0.040 A 
ATOM     17  C   UNL     1     -24.507  12.503  22.361  1.00  0.00    -0.014 A 
ATOM     18  C   UNL     1     -24.484  13.240  23.555  1.00  0.00    +0.012 A 
ATOM     19  C   UNL     1     -23.640  12.928  21.347  1.00  0.00    +0.055 A 
ATOM     20  C   UNL     1     -24.389  11.171  19.908  1.00  0.00    +0.057 A 
ATOM     21  C   UNL     1     -23.593  12.275  20.132  1.00  0.00    +0.116 A 
ATOM     22  F   UNL     1     -27.014  11.590  25.500  1.00  0.00    -0.207 F 
BRANCH  13  23
ATOM     23  C   UNL     1     -27.327  10.012  23.308  1.00  0.00    +0.036 C 
ATOM     24  C   UNL     1     -28.698  10.583  22.971  1.00  0.00    +0.009 C 
ENDBRANCH  13  23
BRANCH  21  25
ATOM     25  O   UNL     1     -22.738  12.748  19.183  1.00  0.00    -0.508 OA
ATOM     26  H   UNL     1     -21.949  12.180  19.157  1.00  0.00    +0.293 HD
ENDBRANCH  21  25
ENDBRANCH   1  12
BRANCH   7  27
ATOM     27  N   UNL     1     -29.316   6.149  18.736  1.00  0.00    -0.353 N 
ATOM     28  C   UNL     1     -29.168   6.710  17.371  1.00  0.00    +0.118 C 
ATOM     29  C   UNL     1     -30.037   4.859  18.744  1.00  0.00    +0.153 C 
ATOM     30  C   UNL     1     -30.376   6.371  16.483  1.00  0.00    +0.024 C 
ATOM     31  C   UNL     1     -31.502   5.088  18.309  1.00  0.00    +0.088 C 
ATOM     32  C   UNL     1     -31.656   6.237  17.302  1.00  0.00    +0.039 C 
ATOM     33  C   UNL     1     -32.553   5.096  19.438  1.00  0.00    +0.066 C 
ATOM     34  O   UNL     1     -32.070   3.857  17.767  1.00  0.00    -0.373 OA
ATOM     35  C   UNL     1     -32.929   3.712  18.922  1.00  0.00    +0.164 C 
ENDBRANCH   7  27
BRANCH   9  36
ATOM     36  O   UNL     1     -25.803   3.518  20.288  1.00  0.00    -0.461 OA
BRANCH  36  37
ATOM     37  C   UNL     1     -26.024   2.996  21.599  1.00  0.00    +0.255 C 
BRANCH  37  38
ATOM     38  C   UNL     1     -24.943   1.937  21.964  1.00  0.00    +0.058 C 
ATOM     39  C   UNL     1     -25.442   0.507  21.709  1.00  0.00    +0.027 C 
ATOM     40  N   UNL     1     -23.746   2.110  21.088  1.00  0.00    -0.291 NA
ATOM     41  C   UNL     1     -24.432   2.169  23.389  1.00  0.00    +0.065 C 
ATOM     42  C   UNL     1     -24.783   0.118  20.396  1.00  0.00    +0.018 C 
ATOM     43  C   UNL     1     -23.437   0.811  20.480  1.00  0.00    +0.085 C 
ATOM     44  C   UNL     1     -22.640   2.635  21.906  1.00  0.00    +0.123 C 
ATOM     45  C   UNL     1     -23.285   3.140  23.187  1.00  0.00    +0.182 C 
ATOM     46  F   UNL     1     -22.426   3.070  24.229  1.00  0.00    -0.246 F 
ENDBRANCH  37  38
ENDBRANCH  36  37
ENDBRANCH   9  36
TORSDOF 7
ENDMDL
